ITEM: TIMESTEP
0
ITEM: NUMBER OF ATOMS
96
ITEM: BOX BOUNDS pp pp pp
2.9236100000000000e+00 1.2773600000000000e+01
4.0306300000000004e+00 1.3880599999999999e+01
2.1372399999999998e+00 1.1987200000000000e+01
ITEM: ATOMS id type x y z vx vy vz
1 1 5.409 13.6857 2.80433 -0.000878417 -0.000608041 -0.00106287
2 2 5.17353 12.7338 2.88063 -0.0147786 0.00142337 0.0210162
3 2 11.01 13.4908 2.99761 -0.014862 -0.00793795 0.00139166
4 1 2.93888 9.88655 11.7434 -7.54542e-05 0.00285142 0.000861793
5 2 11.8184 9.90849 11.4678 -0.0062299 0.0170791 0.00313315
6 2 3.03635 9.04505 2.41035 -0.0131507 0.0112856 0.0263631
7 1 3.08953 7.51319 3.17345 -0.000623138 -0.000754316 -0.000571427
8 2 11.964 7.44693 3.42693 -0.0326922 -0.024411 -0.00391154
9 2 8.81908 9.07047 7.11774 -0.00147256 -0.00866126 0.0121087
10 1 7.80678 9.36864 6.92744 -0.000324792 -0.00655042 0.00623923
11 2 7.0583 7.95768 6.71371 -0.00297439 0.0092604 -0.0207086
12 2 7.45664 9.71789 7.79988 0.0183036 -0.00239946 -0.00828695
13 1 6.55243 9.40853 4.00024 0.00292164 0.00304477 0.000646675
14 2 6.60668 8.76059 4.66391 0.00643613 0.00845243 0.0147156
15 2 6.9393 8.8775 3.27967 0.00529521 0.00142108 -0.0107294
16 1 9.67231 7.27783 10.8595 0.00458395 0.00433199 -6.79799e-05
17 2 9.87223 7.25555 11.866 0.0275911 -0.0086215 0.0105736
18 2 8.74386 7.0014 10.8513 -0.00884513 -0.0426498 -0.0135982
19 1 4.30372 6.43615 10.6634 -0.00145449 -0.00383914 0.00408985
20 2 3.90994 6.90411 11.4758 0.033772 0.00546407 -0.0111416
21 2 4.17339 8.04557 9.70091 -0.0182522 -0.0195918 0.000993116
22 1 10.1317 9.8772 11.2464 -0.00435444 -0.00297946 -0.000361097
23 2 9.73765 9.98801 2.27511 0.0442449 -6.87333e-05 -0.00090785
24 2 9.86407 8.96203 10.9935 0.0342455 0.0203067 0.00496584
25 1 4.39955 8.04468 5.58513 -0.00165861 -0.00653685 -0.00352283
26 2 4.72635 8.79865 4.98916 0.013718 0.0172755 -0.021349
27 2 3.72991 5.94469 5.27674 -0.0101971 -0.0187765 -5.41981e-05
28 1 10.016 6.90838 3.71426 0.00269616 -0.00111457 0.000797912
29 2 9.30876 6.35262 3.99018 0.0189804 -0.0115848 -0.00666608
30 2 9.67346 7.8956 4.15965 -0.00366918 0.00321226 0.00362605
31 1 11.5469 11.0591 5.26534 0.00655329 -0.0012688 -0.00121814
32 2 11.1814 11.9455 5.23994 0.00784422 -0.0130154 0.0123899
33 2 12.3229 11.0983 4.6865 -0.0183248 -0.0186976 0.0257139
34 1 7.71852 5.0401 10.79 0.00598264 -0.000355843 -0.000407021
35 2 7.98965 4.09995 10.7511 -0.0155387 -0.00966505 0.00750636
36 2 7.05209 4.93625 11.4639 -0.0158879 -0.000484303 0.000173655
37 1 8.27502 12.1843 10.0495 0.00141703 0.00165163 8.98374e-05
38 2 8.86661 12.685 9.48774 -0.000936605 0.0123844 0.0135296
39 2 8.8719 11.6164 10.6079 -0.0253706 0.0134674 0.0110618
40 1 10.8587 4.04401 4.57044 -0.00464923 -0.000695614 -0.00504787
41 2 11.7398 4.54845 4.73894 -0.00328111 -0.00844284 0.023074
42 2 10.2494 4.77524 4.47693 0.0171474 0.0239486 -0.00817878
43 1 3.62264 5.01669 5.09028 0.00315146 0.00113221 -0.00458631
44 2 3.63137 7.56665 4.00088 0.0127766 0.0271818 -0.0349044
45 2 4.95948 4.31507 3.40673 0.00398064 -0.00432113 -0.00934095
46 1 9.88384 13.4094 8.08531 0.00367339 0.00137589 -0.00138496
47 2 9.23897 13.2455 7.34684 -0.0103026 0.0120575 0.0238037
48 2 10.5985 12.8826 7.79047 -0.00255277 -0.00686012 0.0077155
49 1 10.8083 6.10211 8.56195 -0.0035683 0.00227786 -0.000815879
50 2 10.5905 5.17385 8.29246 0.00295538 0.0327619 0.00894977
51 2 10.4914 6.24696 9.45806 -0.0127027 -0.0336552 -0.00212904
52 1 9.35382 9.47457 4.21388 0.000449174 -0.00440578 0.00150076
53 2 10.1016 9.89196 4.73534 -0.00528336 -0.0306073 -0.0111679
54 2 8.567 9.55276 4.76911 0.0148164 0.0220233 0.00166545
55 1 4.43667 11.2949 3.84632 -0.00415927 0.00402259 -0.00243686
56 2 5.18522 10.663 3.69978 -0.00120737 0.00565397 -0.0146232
57 2 3.81205 11.0172 3.14051 0.00657842 -0.00980255 -0.0160066
58 1 6.87348 9.85851 9.31076 -0.00553003 0.00245282 -0.00389066
59 2 5.60913 10.5704 6.47984 0.00699481 -0.00936311 0.0001606
60 2 7.04878 10.8356 9.55229 -0.0120973 -0.00482554 0.000882078
61 1 6.30135 4.74646 8.12492 -0.00271368 0.00112866 -0.00321112
62 2 6.82235 4.78754 8.91058 0.00438785 0.00520229 0.00845414
63 2 5.3839 4.6011 8.41788 -0.00673747 0.000577872 0.00905856
64 1 4.895 11.1636 6.73188 0.00247388 0.0049379 0.00284967
65 2 4.52209 11.5145 5.88105 -0.0278767 0.0256149 0.0134974
66 2 3.8622 12.5956 7.37676 0.015877 -0.0237769 -0.00187116
67 1 11.9484 10.5059 7.80894 -0.00294926 -0.00574014 0.00217237
68 2 12.0952 10.7989 6.91239 0.00186901 0.0104156 -0.00575896
69 2 2.9654 10.3513 8.06626 -0.00113099 0.0183165 -0.00142309
70 1 8.2549 5.11694 4.68786 -0.00194755 0.000169615 0.0040408
71 2 8.06904 4.25865 4.93416 0.0281783 0.0168398 0.00107208
72 2 7.70494 5.69666 5.29212 -0.00446551 0.0155127 0.0173458
73 1 10.3328 8.45266 7.20394 -0.00022176 0.00367243 0.00280712
74 2 10.6053 7.57379 7.561 0.000395714 0.0145489 -0.00920118
75 2 10.7526 9.11585 7.78512 -0.012799 -0.0209845 0.0144754
76 1 3.62885 13.7178 10.3791 0.00074346 -0.00179765 0.00187435
77 2 12.7109 13.6005 10.9347 0.0139604 0.0110128 0.000564166
78 2 3.7662 5.63321 10.5778 -0.018431 0.0396376 0.0341907
79 1 4.22849 9.0804 9.53542 0.00191513 0.00494182 -0.00238498
80 2 3.70866 9.42138 10.3382 0.00750662 -0.025975 -0.00946769
81 2 5.8967 9.79973 9.19649 0.0142328 0.00304985 -0.000672622
82 1 7.2338 7.85394 11.2193 -0.00142969 -0.00353596 -0.00828863
83 2 6.5087 7.2294 10.8785 0.0170002 -0.0089343 -0.0184244
84 2 7.25907 8.57887 10.5374 0.00796382 -0.00144082 0.00506134
85 1 10.975 13.585 11.8147 -0.00105028 -0.000260694 -0.00261493
86 2 10.1367 4.16742 11.603 0.00743729 0.0187657 0.00849492
87 2 4.41971 13.501 10.9599 -0.00312695 -0.0133321 -0.00398233
88 1 7.57021 12.7776 6.17506 -0.00539208 -0.000478264 0.000794228
89 2 6.87175 12.091 6.38534 0.00226308 -0.0210566 -0.00689922
90 2 7.33227 13.4849 6.75578 0.00996992 -0.010271 -0.0157692
91 1 6.74468 7.07697 6.36197 -0.000815015 0.00510992 0.00468648
92 2 5.24025 7.47418 5.74148 -0.00856504 -0.00211552 -0.0148938
93 2 6.53362 6.5943 7.14052 0.00322928 0.0283733 0.028663
94 1 3.66404 13.5228 7.73794 0.00393991 -0.00520737 -0.0013398
95 2 3.38313 13.4506 8.66394 0.00147233 -0.00330351 0.0040074
96 2 3.68209 4.67932 5.92508 -0.0253924 0.0211581 0.056621
ITEM: TIMESTEP
1
ITEM: NUMBER OF ATOMS
96
ITEM: BOX BOUNDS pp pp pp
2.9236100000000000e+00 1.2773600000000000e+01
4.0306300000000004e+00 1.3880599999999999e+01
2.1372399999999998e+00 1.1987200000000000e+01
ITEM: ATOMS id type x y z vx vy vz
1 1 5.4087 13.6853 2.80359 -0.000339048 -0.000997611 -0.00190147
2 2 5.16581 12.7349 2.89214 -0.0159724 0.00285246 0.0248512
3 2 11.0023 13.4871 2.99724 -0.0155741 -0.00687155 -0.00289781
4 1 2.93884 9.88801 11.7438 -0.000105868 0.00297543 0.000845841
5 2 11.8149 9.91728 11.4692 -0.00757627 0.0180077 0.00261197
6 2 3.03003 9.05008 2.42394 -0.0122316 0.00900831 0.0278193
7 1 3.08916 7.51281 3.17316 -0.000931667 -0.00074908 -0.000631949
8 2 11.949 7.43451 3.42511 -0.02641 -0.0251 -0.0033622
9 2 8.81622 9.0665 7.12344 -0.00972193 -0.00729293 0.01058
10 1 7.80677 9.36537 6.93052 0.000297243 -0.00651056 0.00605155
11 2 7.05741 7.96374 6.70351 -0.000651376 0.0148748 -0.0201052
12 2 7.46602 9.71658 7.79555 0.0188293 -0.00257979 -0.00849981
13 1 6.5539 9.41003 4.00048 0.00295331 0.00294162 0.000321701
14 2 6.60983 8.76419 4.67287 0.00623931 0.00628726 0.0204886
15 2 6.94171 8.87893 3.27406 0.00415796 0.00441928 -0.0111319
16 1 9.67469 7.27997 10.8596 0.00487864 0.00419762 0.000323633
17 2 9.88664 7.25099 11.8713 0.0293588 -0.00965668 0.00967037
18 2 8.73766 6.97992 10.8438 -0.0144004 -0.0426342 -0.0160213
19 1 4.30296 6.43436 10.6655 -0.00151068 -0.00329222 0.00438687
20 2 3.92756 6.90608 11.469 0.0363916 0.00305963 -0.0150345
21 2 4.16488 8.03811 9.70066 -0.0155562 -0.009747 -0.00231849
22 1 10.1295 9.87578 11.2462 -0.00432656 -0.00259723 -0.000342973
23 2 9.75993 9.98816 2.27508 0.0444095 0.000612654 0.00153836
24 2 9.88112 8.97154 10.9953 0.0335086 0.0165548 0.00204848
25 1 4.39879 8.04144 5.58325 -0.00135898 -0.00635328 -0.00403349
26 2 4.73273 8.80602 4.97982 0.0114574 0.0115081 -0.0154554
27 2 3.72484 5.93645 5.27627 -0.00999084 -0.0135989 -0.00195492
28 1 10.0173 6.90816 3.71474 0.00265921 0.000220121 0.0010874
29 2 9.31746 6.34542 3.98676 0.0155642 -0.0172092 -0.00687423
30 2 9.67331 7.89485 4.15952 0.0029146 -0.00631838 -0.00407551
31 1 11.5502 11.0584 5.26468 0.0064473 -0.00138459 -0.00134894
32 2 11.1854 11.9394 5.24581 0.00815537 -0.0109468 0.0109889
33 2 12.3137 11.0892 4.69948 -0.0172934 -0.0176046 0.0252588
34 1 7.7215 5.03983 10.7898 0.00590667 -0.000746718 -0.000296511
35 2 7.98224 4.09563 10.7542 -0.0140546 -0.00749794 0.00494814
36 2 7.04358 4.93672 11.4643 -0.0176252 0.00251794 0.000851368
37 1 8.27572 12.1851 10.0496 0.00133484 0.00137702 0.00041917
38 2 8.8667 12.6913 9.49396 0.00149504 0.0126453 0.0113354
39 2 8.85878 11.6236 10.6126 -0.0265996 0.0151467 0.00801701
40 1 10.8565 4.04371 4.56797 -0.00414513 -0.000493794 -0.00482044
41 2 11.7375 4.54317 4.75025 -0.00588005 -0.0127913 0.0220698
42 2 10.257 4.78746 4.47274 0.0132736 0.0246219 -0.00858445
43 1 3.6242 5.01731 5.08782 0.00308614 0.0012466 -0.00508318
44 2 3.63711 7.58031 3.98378 0.0102272 0.0274174 -0.032847
45 2 4.95955 4.31396 3.40452 -0.00374601 0.00018061 0.000619691
46 1 9.88559 13.4101 8.08456 0.00334328 0.00140713 -0.00157584
47 2 9.2343 13.2518 7.3595 -0.00851391 0.0130324 0.026434
48 2 10.5982 12.8785 7.79427 0.00125796 -0.00962895 0.00733285
49 1 10.8066 6.10325 8.56149 -0.00340574 0.00233879 -0.000989797
50 2 10.5918 5.19044 8.29729 0.00199016 0.0324053 0.00971209
51 2 10.4847 6.23019 9.45734 -0.0140847 -0.0329971 -0.000395763
52 1 9.35412 9.47234 4.21462 0.000715291 -0.00452527 0.00141388
53 2 10.0982 9.87636 4.72961 -0.00761763 -0.0314336 -0.0113332
54 2 8.57431 9.5639 4.7703 0.0140167 0.0224486 0.0032687
55 1 4.43459 11.2969 3.84505 -0.00414473 0.00382518 -0.00267676
56 2 5.18453 10.6663 3.69308 -0.00145998 0.00770808 -0.0119941
57 2 3.81527 11.0126 3.13278 0.0062188 -0.00855868 -0.0147336
58 1 6.8707 9.85984 9.30889 -0.00553265 0.00284838 -0.00358511
59 2 5.61221 10.5659 6.47962 0.00488361 -0.00835124 -0.00114277
60 2 7.04297 10.8321 9.5525 -0.0110425 -0.00892635 3.57443e-06
61 1 6.29997 4.74705 8.12326 -0.00279921 0.00121994 -0.00336088
62 2 6.82469 4.79018 8.91578 0.00462422 0.00532901 0.0117183
63 2 5.38085 4.60119 8.42225 -0.00515124 -0.000183452 0.0082472
64 1 4.89621 11.1661 6.73327 0.0023771 0.00512403 0.00271337
65 2 4.50915 11.5262 5.88835 -0.0235194 0.0210429 0.0157781
66 2 3.86994 12.5852 7.37709 0.0149677 -0.0171175 0.00338773
67 1 11.9468 10.5031 7.81011 -0.0032872 -0.00564145 0.00245091
68 2 12.0954 10.8046 6.90748 -0.00110105 0.0121192 -0.0130973
69 2 2.96709 10.3594 8.06737 0.00763501 0.0142052 0.00574763
70 1 8.2539 5.11723 4.68987 -0.00204508 0.00105601 0.00400032
71 2 8.08258 4.26436 4.93543 0.0258285 0.00546356 0.00430177
72 2 7.70315 5.70395 5.30028 -0.00243061 0.0131683 0.0149975
73 1 10.3327 8.45449 7.20533 -0.000318848 0.00364711 0.00270856
74 2 10.6053 7.58059 7.55669 -0.000471268 0.0121023 -0.00802021
75 2 10.7468 9.10601 7.79228 -0.0100686 -0.0178036 0.0144751
76 1 3.62932 13.7169 10.3801 0.00113926 -0.00186717 0.00200451
77 2 12.7169 13.6058 10.9356 0.00960799 0.0100294 0.00317863
78 2 3.75706 5.65247 10.5945 -0.0187413 0.0363885 0.0323096
79 1 4.22941 9.08268 9.53429 0.00175915 0.0041247 -0.00213854
80 2 3.71276 9.40895 10.3329 0.00861234 -0.0232409 -0.0111434
81 2 5.90328 9.80096 9.19629 0.0113998 0.00177541 -0.000277311
82 1 7.23298 7.85214 11.2151 -0.00181152 -0.00366313 -0.00851398
83 2 6.51855 7.22608 10.87 0.0220806 -0.0045023 -0.0157623
84 2 7.26295 8.57742 10.5406 0.00750593 -0.00411604 0.00745825
85 1 10.9745 13.5849 11.8134 -0.00105401 -0.000280758 -0.00253282
86 2 10.1408 4.17665 11.6075 0.00873804 0.0181865 0.00932929
87 2 4.41733 13.4947 10.9577 -0.00619841 -0.0118252 -0.00475571
88 1 7.56746 12.7772 6.17547 -0.00557955 -0.000976281 0.000808957
89 2 6.87392 12.0816 6.38147 0.00638836 -0.0162618 -0.00844505
90 2 7.33675 13.4803 6.7485 0.00755531 -0.00766444 -0.0128052
91 1 6.74426 7.07947 6.36422 -0.000870888 0.00486845 0.0043342
92 2 5.23515 7.47384 5.73415 -0.0116534 0.000579554 -0.0143393
93 2 6.53471 6.60685 7.1559 0.0012305 0.0220753 0.032429
94 1 3.66603 13.5201 7.73717 0.00401678 -0.00552093 -0.00174305
95 2 3.38392 13.4485 8.66582 0.00178305 -0.00501721 0.00330336
96 2 3.66958 4.68797 5.95638 -0.0248573 0.0143363 0.0660815
ITEM: TIMESTEP
2
ITEM: NUMBER OF ATOMS
96
ITEM: BOX BOUNDS pp pp pp
2.9236100000000000e+00 1.2773600000000000e+01
4.0306300000000004e+00 1.3880599999999999e+01
2.1372399999999998e+00 1.1987200000000000e+01
ITEM: ATOMS id type x y z vx vy vz
1 1 5.40866 13.6847 2.80243 0.00016428 -0.00139487 -0.00269683
2 2 5.15756 12.7367 2.90548 -0.0168864 0.0041607 0.0283071
3 2 10.9944 13.4839 2.99471 -0.0159208 -0.00592802 -0.00706792
4 1 2.93877 9.88953 11.7442 -0.000176198 0.0030689 0.000851774
5 2 11.8108 9.9265 11.4704 -0.00811316 0.018755 0.00231334
6 2 3.02412 9.05406 2.43817 -0.0115221 0.00713446 0.0288151
7 1 3.0886 7.51244 3.17282 -0.00137089 -0.000741911 -0.000769129
8 2 11.9376 7.42183 3.42357 -0.0182656 -0.0254555 -0.00280548
9 2 8.80936 9.06318 7.12832 -0.0171573 -0.00620418 0.00887256
10 1 7.80708 9.36213 6.93349 0.000927045 -0.00644711 0.0058055
11 2 7.05765 7.97255 6.6936 0.00142779 0.0199875 -0.0195725
12 2 7.47547 9.71531 7.79138 0.018527 -0.0022446 -0.00761532
13 1 6.55538 9.41147 4.00056 0.00299307 0.00277736 1.73936e-05
14 2 6.61292 8.76688 4.6844 0.00618726 0.00490344 0.0248522
15 2 6.94346 8.88192 3.26854 0.00269122 0.00758727 -0.0104941
16 1 9.67719 7.28203 10.8598 0.0050304 0.00398025 0.000756101
17 2 9.90159 7.24589 11.8757 0.0297426 -0.0107589 0.00719777
18 2 8.72946 6.95877 10.8353 -0.0167268 -0.0412741 -0.0172919
19 1 4.30221 6.43286 10.6678 -0.00144838 -0.00270841 0.00459539
20 2 3.94633 6.90717 11.4608 0.0383306 0.00202521 -0.0170848
21 2 4.15783 8.03582 9.69859 -0.0124403 0.000762028 -0.00621088
22 1 10.1274 9.8746 11.2461 -0.00419258 -0.00205681 -0.000388218
23 2 9.78206 9.98862 2.27665 0.0437027 0.00110572 0.00532006
24 2 9.89758 8.97858 10.9955 0.0319833 0.0106539 -0.00113022
25 1 4.39819 8.03833 5.5811 -0.0010505 -0.0060653 -0.00460748
26 2 4.73781 8.81016 4.9737 0.0086015 0.00463496 -0.00869415
27 2 3.71992 5.93109 5.27479 -0.00966576 -0.00767606 -0.00401389
28 1 10.0187 6.9086 3.71535 0.00267017 0.00151895 0.00133239
29 2 9.32432 6.33541 3.98331 0.0118104 -0.0226212 -0.00689237
30 2 9.67637 7.88928 4.15557 0.00901969 -0.0158096 -0.0114268
31 1 11.5533 11.0577 5.26399 0.00621511 -0.00158211 -0.00133891
32 2 11.1896 11.9346 5.25093 0.00821867 -0.00783975 0.00941095
33 2 12.3056 11.0807 4.71176 -0.0138092 -0.0161527 0.0229202
34 1 7.72443 5.03935 10.7897 0.00575992 -0.00115739 -0.00012397
35 2 7.9756 4.09245 10.756 -0.0124918 -0.00516228 0.00236188
36 2 7.03446 4.93877 11.4648 -0.0183071 0.00573288 0.000522843
37 1 8.27635 12.1857 10.0499 0.00117327 0.00115937 0.000701321
38 2 8.86811 12.6976 9.49908 0.00419714 0.0128489 0.00919431
39 2 8.8453 11.6315 10.6159 -0.0267436 0.016101 0.00564106
40 1 10.8546 4.04352 4.56562 -0.00367639 -0.000240494 -0.00458199
41 2 11.7339 4.53566 4.76101 -0.00817545 -0.0172592 0.0208924
42 2 10.2627 4.79986 4.46835 0.00966522 0.0245616 -0.00897189
43 1 3.62573 5.01794 5.0852 0.00303172 0.00118215 -0.00522206
44 2 3.6416 7.59407 3.96803 0.00780624 0.0275527 -0.0295854
45 2 4.95573 4.31525 3.40735 -0.011149 0.00494504 0.0102939
46 1 9.88718 13.4108 8.08373 0.00304743 0.00144374 -0.00169784
47 2 9.23046 13.2585 7.37327 -0.0070397 0.0135615 0.028174
48 2 10.5998 12.873 7.7978 0.00464392 -0.0123693 0.00673193
49 1 10.8049 6.10445 8.56096 -0.00322308 0.00250809 -0.00109912
50 2 10.5925 5.20626 8.30217 0.000837774 0.0296564 0.00910277
51 2 10.4773 6.21396 9.45766 -0.0154082 -0.0315142 0.00187377
52 1 9.35454 9.47004 4.21529 0.000935721 -0.00467043 0.00125731
53 2 10.094 9.86053 4.72401 -0.00863723 -0.0315554 -0.0106808
54 2 8.58102 9.57521 4.77238 0.0125329 0.0227343 0.00515226
55 1 4.43253 11.2987 3.84364 -0.00413122 0.0035941 -0.0029538
56 2 5.18376 10.6707 3.68779 -0.00151524 0.00991053 -0.00900891
57 2 3.81827 11.0086 3.12578 0.00568883 -0.0069564 -0.0131448
58 1 6.86795 9.86136 9.30717 -0.00546172 0.00321149 -0.00327663
59 2 5.61401 10.562 6.4787 0.00196512 -0.00663366 -0.00258665
60 2 7.03774 10.8267 9.55229 -0.00978205 -0.0123145 -0.000727788
61 1 6.29855 4.74768 8.12156 -0.0028689 0.00131187 -0.00340658
62 2 6.82697 4.79287 8.9223 0.00412048 0.00539546 0.0137006
63 2 5.37875 4.60092 8.42613 -0.00303849 -0.000860876 0.00712858
64 1 4.89738 11.1687 6.73459 0.00229421 0.00529302 0.00257922
65 2 4.49857 11.5355 5.89683 -0.0185747 0.0159748 0.0180525
66 2 3.87717 12.5785 7.38015 0.0138823 -0.00968215 0.00889893
67 1 11.9451 10.5003 7.81139 -0.00354476 -0.00551114 0.00263436
68 2 12.0941 10.811 6.89929 -0.00426277 0.0131196 -0.0185343
69 2 2.97304 10.3655 8.07201 0.0153521 0.0103793 0.0124068
70 1 8.25285 5.118 4.69186 -0.00215594 0.00203363 0.00396424
71 2 8.09487 4.26411 4.93846 0.0232944 -0.00639991 0.00796613
72 2 7.70251 5.70983 5.30712 9.69214e-06 0.00999046 0.0121663
73 1 10.3325 8.45631 7.20665 -0.000439186 0.00362137 0.00256722
74 2 10.6048 7.58589 7.55298 -0.0012074 0.00871477 -0.006801
75 2 10.7425 9.09805 7.7996 -0.0070409 -0.0136521 0.0149896
76 1 3.62999 13.7159 10.3811 0.00153679 -0.00194632 0.00208956
77 2 12.7205 13.6105 10.9379 0.00471432 0.0089734 0.00604661
78 2 3.74746 5.6696 10.6101 -0.0201797 0.031265 0.0299533
79 1 4.23025 9.08452 9.53328 0.00160298 0.00320084 -0.0019167
80 2 3.71727 9.39814 10.3271 0.00914031 -0.0194887 -0.0119292
81 2 5.9081 9.80151 9.19621 0.00729567 0.000357048 -0.000141154
82 1 7.23199 7.85028 11.2108 -0.00211944 -0.0038123 -0.00867343
83 2 6.53078 7.2249 10.8627 0.026353 -0.0005795 -0.0134728
84 2 7.26658 8.57475 10.5449 0.00701086 -0.00621649 0.0091522
85 1 10.9739 13.5847 11.8122 -0.00106842 -0.000297573 -0.00243453
86 2 10.1454 4.18561 11.6123 0.00982586 0.0177006 0.00978744
87 2 4.41351 13.4892 10.9551 -0.00878624 -0.0103552 -0.00533981
88 1 7.56463 12.7766 6.17587 -0.00571033 -0.00154519 0.000743206
89 2 6.87814 12.0747 6.37689 0.0103056 -0.0111485 -0.00969553
90 2 7.33983 13.4772 6.74297 0.00445093 -0.00422684 -0.00886148
91 1 6.74381 7.08184 6.3663 -0.000942762 0.00457888 0.00404939
92 2 5.2286 7.47476 5.72714 -0.0142436 0.00280205 -0.0136005
93 2 6.53485 6.61638 7.17295 -0.000469638 0.0164612 0.0351024
94 1 3.66806 13.5173 7.7362 0.00409321 -0.00587881 -0.00213256
95 2 3.38491 13.4456 8.66724 0.00227746 -0.00664466 0.00224035
96 2 3.65723 4.69366 5.99116 -0.0246353 0.00948976 0.0701399
ITEM: TIMESTEP
3
ITEM: NUMBER OF ATOMS
96
ITEM: BOX BOUNDS pp pp pp
2.9236100000000000e+00 1.2773600000000000e+01
4.0306300000000004e+00 1.3880599999999999e+01
2.1372399999999998e+00 1.1987200000000000e+01
ITEM: ATOMS id type x y z vx vy vz
1 1 5.40886 13.6839 2.80089 0.000582005 -0.00175907 -0.00338536
2 2 5.14892 12.739 2.92045 -0.0174694 0.0053856 0.0313219
3 2 10.9864 13.4812 2.99017 -0.0158699 -0.00517722 -0.0108636
4 1 2.93866 9.89108 11.7447 -0.000288204 0.00312383 0.000886123
5 2 11.8067 9.93604 11.4715 -0.00780981 0.0192763 0.00226783
6 2 3.01851 9.05722 2.45276 -0.0110627 0.00583037 0.0292038
7 1 3.08779 7.51207 3.17239 -0.00190866 -0.000732395 -0.000976458
8 2 11.9307 7.40906 3.42231 -0.00882358 -0.0254758 -0.00220234
9 2 8.79906 9.0603 7.13231 -0.0231991 -0.00557273 0.00706824
10 1 7.8077 9.35893 6.93632 0.00153564 -0.00634378 0.00549579
11 2 7.05884 7.98372 6.68394 0.00302648 0.0239907 -0.0191495
12 2 7.48455 9.71434 7.78794 0.0173293 -0.00136456 -0.0055547
13 1 6.55689 9.41281 4.0005 0.00303408 0.00255466 -0.000238711
14 2 6.61602 8.76909 4.69773 0.0062503 0.00444314 0.0276355
15 2 6.9444 8.88652 3.26356 0.00103844 0.0107441 -0.00907242
16 1 9.67972 7.28395 10.8603 0.005036 0.003679 0.00121698
17 2 9.91638 7.24023 11.8785 0.0287615 -0.0119384 0.00326978
18 2 8.72094 6.93865 10.8265 -0.015738 -0.0384697 -0.017382
19 1 4.30152 6.43165 10.6701 -0.00127775 -0.00212607 0.00469628
20 2 3.96589 6.9081 11.452 0.0395631 0.00243019 -0.0171688
21 2 4.15244 8.03887 9.69445 -0.00899914 0.0111957 -0.0105041
22 1 10.1253 9.87373 11.2458 -0.00397805 -0.00138846 -0.000484239
23 2 9.80364 9.98927 2.2804 0.0423397 0.00129943 0.0100613
24 2 9.9131 8.98219 10.9942 0.0298793 0.00311061 -0.00437027
25 1 4.39774 8.03538 5.57864 -0.000765423 -0.00569621 -0.00521782
26 2 4.74133 8.81066 4.97113 0.00536138 -0.00273115 -0.00154342
27 2 3.71518 5.92877 5.27225 -0.00927372 -0.00162454 -0.00621972
28 1 10.02 6.90968 3.71607 0.00272475 0.00271644 0.00152216
29 2 9.32927 6.3228 3.97987 0.00803427 -0.0274719 -0.00682058
30 2 9.68233 7.87904 4.14809 0.0143764 -0.0247863 -0.0180833
31 1 11.5564 11.0569 5.26334 0.00586425 -0.00184339 -0.00119454
32 2 11.1937 11.9315 5.25522 0.00809273 -0.00390773 0.00769993
33 2 12.2999 11.073 4.7224 -0.00802929 -0.0144287 0.0188736
34 1 7.72726 5.03867 10.7897 0.00554473 -0.00157 0.000102747
35 2 7.96975 4.09047 10.7566 -0.0108666 -0.00283661 -0.00020008
36 2 7.02528 4.94246 11.4648 -0.0179459 0.00904715 -0.000744354
37 1 8.27689 12.1862 10.0503 0.000941731 0.00101481 0.000917225
38 2 8.8709 12.7041 9.50315 0.00696505 0.0128676 0.00725361
39 2 8.83203 11.6397 10.6182 -0.025744 0.0162141 0.00409447
40 1 10.8528 4.04347 4.56339 -0.00326681 5.90541e-05 -0.00433727
41 2 11.7293 4.52591 4.77114 -0.00999192 -0.0216308 0.0196085
42 2 10.2667 4.81202 4.46377 0.0065375 0.0236299 -0.00928639
43 1 3.62723 5.01849 5.0826 0.00298084 0.000974609 -0.0049802
44 2 3.64492 7.60787 3.9542 0.00558025 0.0276066 -0.0252783
45 2 4.9484 4.3189 3.41482 -0.0175156 0.00928969 0.0187386
46 1 9.88864 13.4115 8.08286 0.00281445 0.00147625 -0.00174813
47 2 9.22726 13.2654 7.38767 -0.00601107 0.0136105 0.02889
48 2 10.6029 12.8661 7.801 0.00729857 -0.0148668 0.00601429
49 1 10.8033 6.10576 8.56039 -0.00303028 0.00277915 -0.00112943
50 2 10.5926 5.2201 8.3064 -0.000470702 0.0246874 0.0071489
51 2 10.4693 6.19868 9.45922 -0.016564 -0.0292662 0.0043771
52 1 9.35505 9.46767 4.21588 0.0010924 -0.00482693 0.00104218
53 2 10.0896 9.84481 4.71893 -0.00830395 -0.0309924 -0.00922843
54 2 8.58684 9.58663 4.77545 0.010597 0.0228745 0.00712351
55 1 4.43046 11.3005 3.84209 -0.00412228 0.0033445 -0.0032577
56 2 5.18302 10.6762 3.68407 -0.00129158 0.012118 -0.00576116
57 2 3.82096 11.0056 3.11963 0.00496599 -0.00509775 -0.0113611
58 1 6.86524 9.86305 9.30561 -0.00533504 0.00352476 -0.00297664
59 2 5.61418 10.5592 6.47703 -0.00153241 -0.00439279 -0.00411914
60 2 7.03319 10.8198 9.55177 -0.00833079 -0.0147576 -0.00125105
61 1 6.2971 4.74836 8.11986 -0.00291008 0.00140744 -0.00334743
62 2 6.82881 4.79558 8.92948 0.00286586 0.00539589 0.0143379
63 2 5.37781 4.60033 8.42938 -0.000573547 -0.00147027 0.00574734
64 1 4.89851 11.1714 6.73585 0.00222905 0.00543993 0.00246355
65 2 4.49058 11.5422 5.90641 -0.013315 0.0106588 0.0200544
66 2 3.88382 12.5756 7.38598 0.012767 -0.00211707 0.0143057
67 1 11.9433 10.4975 7.81274 -0.00367435 -0.00535033 0.00272021
68 2 12.0912 10.8177 6.88894 -0.00752874 0.0132271 -0.0216481
69 2 2.98244 10.3698 8.07977 0.0211069 0.00701287 0.0180661
70 1 8.25175 5.11926 4.69383 -0.00228317 0.00301392 0.0039411
71 2 8.10587 4.25796 4.9434 0.0207986 -0.0175608 0.0117509
72 2 7.70316 5.71394 5.31245 0.00266686 0.00618074 0.00906748
73 1 10.3322 8.45811 7.20789 -0.000569267 0.00359573 0.0024053
74 2 10.6041 7.5893 7.54988 -0.00185067 0.00470093 -0.0056188
75 2 10.7398 9.09236 7.80727 -0.00385966 -0.00886173 0.0157761
76 1 3.63086 13.7149 10.3822 0.00190171 -0.00203219 0.00213997
77 2 12.7216 13.6147 10.9416 -0.000337337 0.00791442 0.00890181
78 2 3.73688 5.68374 10.6244 -0.0225533 0.0247188 0.027282
79 1 4.23101 9.08588 9.53237 0.00145553 0.00222363 -0.00173881
80 2 3.7219 9.38946 10.321 0.00903313 -0.0147832 -0.01171
81 2 5.91058 9.80131 9.19615 0.00222315 -0.00114541 -0.000212665
82 1 7.23086 7.84833 11.2064 -0.00233759 -0.00397526 -0.00874475
83 2 6.5449 7.2255 10.8565 0.0294728 0.00248669 -0.0117308
84 2 7.26996 8.57121 10.5498 0.00652524 -0.00752446 0.00998317
85 1 10.9734 13.5846 11.811 -0.00108812 -0.000312315 -0.0023345
86 2 10.1506 4.19435 11.6173 0.0105989 0.0173787 0.00980616
87 2 4.40854 13.4844 10.9524 -0.010723 -0.0089858 -0.0055961
88 1 7.56175 12.7757 6.17621 -0.005773 -0.00213739 0.000609257
89 2 6.88422 12.0705 6.37178 0.013696 -0.00609007 -0.0105798
90 2 7.3412 13.4761 6.73964 0.000814092 -0.000299492 -0.00423758
91 1 6.74332 7.08405 6.36827 -0.00102971 0.00424767 0.00386107
92 2 5.22091 7.47664 5.72055 -0.0160311 0.00429037 -0.0126024
93 2 6.53424 6.62332 7.191 -0.00169721 0.0119045 0.0362396
94 1 3.67012 13.5142 7.73504 0.0041614 -0.00624241 -0.00250077
95 2 3.38619 13.4419 8.66806 0.00289286 -0.00810794 0.000971842
96 2 3.64494 4.69746 6.02652 -0.0245404 0.00663986 0.0684656
ITEM: TIMESTEP
4
ITEM: NUMBER OF ATOMS
96
ITEM: BOX BOUNDS pp pp pp
2.9236100000000000e+00 1.2773600000000000e+01
4.0306300000000004e+00 1.3880599999999999e+01
2.1372399999999998e+00 1.1987200000000000e+01
ITEM: ATOMS id type x y z vx vy vz
1 1 5.40924 13.6829 2.79904 0.000872605 -0.00205785 -0.00391407
2 2 5.14009 12.742 2.9368 -0.0176701 0.00655734 0.0338303
3 2 10.9786 13.4788 2.98385 -0.0154104 -0.00468175 -0.0140585
4 1 2.93849 9.89265 11.7451 -0.000440114 0.0031359 0.000954404
5 2 11.803 9.94577 11.4727 -0.00671969 0.0195419 0.00247482
6 2 3.01306 9.05989 2.46737 -0.0108708 0.00520643 0.0288751
7 1 3.08669 7.51171 3.17184 -0.00250643 -0.000719487 -0.00124472
8 2 11.9288 7.39635 3.42137 0.00130177 -0.0251887 -0.00150405
9 2 8.78616 9.0576 7.13539 -0.0273755 -0.00555067 0.00525631
10 1 7.80861 9.35579 6.93899 0.00209677 -0.00618292 0.00512382
11 2 7.06068 7.99655 6.67446 0.00395033 0.0264006 -0.0188507
12 2 7.4928 9.71395 7.78583 0.0152449 3.29319e-05 -0.00236536
13 1 6.55842 9.41403 4.00032 0.00306859 0.00228488 -0.000425889
14 2 6.61917 8.77132 4.71203 0.00641571 0.00492477 0.0287566
15 2 6.9445 8.89266 3.25947 -0.000665833 0.0137023 -0.00709521
16 1 9.68222 7.28571 10.861 0.00491033 0.00329979 0.00168772
17 2 9.93035 7.23395 11.8789 0.0265733 -0.0131803 -0.00182399
18 2 8.71372 6.9203 10.8179 -0.0117224 -0.0342864 -0.016378
19 1 4.30093 6.43073 10.6725 -0.00102218 -0.00158544 0.00468001
20 2 3.98589 6.9096 11.4436 0.0401156 0.00422291 -0.0153202
21 2 4.14883 8.04702 9.68809 -0.00535441 0.020841 -0.0149916
22 1 10.1234 9.87321 11.2456 -0.00371183 -0.000633449 -0.000611561
23 2 9.8244 9.98992 2.28671 0.0405648 0.00107054 0.0152326
24 2 9.92746 8.9817 10.9912 0.0274259 -0.00535563 -0.00742651
25 1 4.39743 8.03263 5.57588 -0.000533451 -0.00527178 -0.00583746
26 2 4.74317 8.80743 4.97216 0.00196001 -0.00998007 0.00552563
27 2 3.71065 5.92947 5.26857 -0.00884533 0.0042346 -0.00869116
28 1 10.0214 6.91132 3.71687 0.00281836 0.00374797 0.00164824
29 2 9.33236 6.30794 3.97649 0.00454562 -0.0314461 -0.0067485
30 2 9.69075 7.8645 4.13749 0.0187407 -0.0327344 -0.0237253
31 1 11.5592 11.0559 5.2628 0.00541628 -0.00214401 -0.000938203
32 2 11.1976 11.9306 5.25863 0.00789066 0.000525533 0.00588732
33 2 12.2976 11.0663 4.73063 -0.000409343 -0.0125095 0.0135093
34 1 7.72997 5.03778 10.7898 0.00526872 -0.00196613 0.000371439
35 2 7.96473 4.08962 10.7558 -0.009195 -0.000710081 -0.00268888
36 2 7.01652 4.94782 11.464 -0.0166435 0.0123405 -0.00280179
37 1 8.2773 12.1867 10.0508 0.000653744 0.00095438 0.00105281
38 2 8.87507 12.7105 9.50633 0.0095981 0.012575 0.00564702
39 2 8.81956 11.6478 10.62 -0.0236159 0.0154372 0.0034672
40 1 10.8513 4.04358 4.56128 -0.00293493 0.000394822 -0.00409121
41 2 11.7239 4.51403 4.78062 -0.0111826 -0.0256995 0.01829
42 2 10.2692 4.82349 4.45906 0.00404025 0.0217808 -0.00948302
43 1 3.62871 5.01891 5.08022 0.00292586 0.00067236 -0.00438658
44 2 3.64718 7.62167 3.94275 0.0035693 0.0275892 -0.0201378
45 2 4.93822 4.32454 3.42609 -0.0222617 0.0126721 0.0251807
46 1 9.89 13.4123 8.08199 0.00266671 0.00149684 -0.00172701
47 2 9.22445 13.2721 7.40216 -0.00552577 0.0131696 0.0285139
48 2 10.6071 12.8581 7.80382 0.0089876 -0.0169396 0.00526788
49 1 10.8019 6.10723 8.55983 -0.00284024 0.0031321 -0.00107123
50 2 10.592 5.23094 8.30932 -0.00187257 0.0179023 0.00399402
51 2 10.4608 6.1847 9.46204 -0.017438 -0.0263461 0.00676647
52 1 9.35563 9.46522 4.21634 0.00117163 -0.00497872 0.000785238
53 2 10.0857 9.82953 4.71478 -0.00667143 -0.0298105 -0.00704853
54 2 8.59161 9.59808 4.7795 0.00847539 0.0228579 0.00896885
55 1 4.4284 11.3021 3.84039 -0.00412143 0.00309182 -0.00357607
56 2 5.18247 10.6828 3.68202 -0.000729074 0.0141938 -0.00235691
57 2 3.82323 11.0035 3.11442 0.00404501 -0.00309486 -0.00951
58 1 6.86261 9.86488 9.3042 -0.00517633 0.00377291 -0.00269541
59 2 5.61248 10.5577 6.47458 -0.00535925 -0.00183339 -0.00570732
60 2 7.02941 10.8119 9.55104 -0.00671398 -0.0160736 -0.00151636
61 1 6.29564 4.74909 8.11821 -0.00291268 0.00150884 -0.00319109
62 2 6.82984 4.79826 8.93664 0.000929108 0.00533139 0.0136817
63 2 5.37818 4.59945 8.43187 0.00203147 -0.00203286 0.00416419
64 1 4.89961 11.1742 6.73706 0.00218475 0.00556086 0.00238285
65 2 4.48526 11.5462 5.91688 -0.00801911 0.00534559 0.0215264
66 2 3.88993 12.5764 7.39445 0.0117755 0.00493172 0.0192568
67 1 11.9414 10.4949 7.81411 -0.00365097 -0.0051625 0.0027186
68 2 12.0866 10.8242 6.87764 -0.0108198 0.0123883 -0.0223812
69 2 2.99414 10.3725 8.09007 0.0243617 0.00417358 0.0224404
70 1 8.25057 5.12101 4.6958 -0.00242543 0.00391167 0.00393796
71 2 8.11567 4.24655 4.95021 0.0185091 -0.0269157 0.0153394
72 2 7.70518 5.71601 5.31618 0.0053429 0.00197519 0.00592995
73 1 10.3319 8.4599 7.20905 -0.000693854 0.00357055 0.00224758
74 2 10.603 7.59059 7.54736 -0.00245458 0.000426761 -0.00454129
75 2 10.7387 9.08918 7.81537 -0.000682619 -0.00381172 0.0165465
76 1 3.63189 13.7139 10.3832 0.00220098 -0.00212046 0.00216904
77 2 12.7202 13.6184 10.9468 -0.00514648 0.00691029 0.0114668
78 2 3.72491 5.69432 10.6374 -0.0255211 0.0173568 0.0244656
79 1 4.2317 9.08675 9.53154 0.00132492 0.00124862 -0.00161963