ITEM: TIMESTEP
0
ITEM: NUMBER OF ATOMS
96
ITEM: BOX BOUNDS pp pp pp
2.9236100000000000e+00 1.2773600000000000e+01
4.0306300000000004e+00 1.3880599999999999e+01
2.1372399999999998e+00 1.1987200000000000e+01
ITEM: ATOMS id type x y z vx vy vz
1 1 5.409 13.6857 2.80433 0.000878417 0.000608041 0.00106287
2 2 5.17353 12.7338 2.88063 0.0147786 -0.00142337 -0.0210162
3 2 11.01 13.4908 2.99761 0.014862 0.00793795 -0.00139166
4 1 2.93888 9.88655 11.7434 7.54542e-05 -0.00285142 -0.000861793
5 2 11.8184 9.90849 11.4678 0.0062299 -0.0170791 -0.00313315
6 2 3.03635 9.04505 2.41035 0.0131507 -0.0112856 -0.0263631
7 1 3.08953 7.51319 3.17345 0.000623138 0.000754316 0.000571427
8 2 11.964 7.44693 3.42693 0.0326922 0.024411 0.00391154
9 2 8.81908 9.07047 7.11774 0.00147256 0.00866126 -0.0121087
10 1 7.80678 9.36864 6.92744 0.000324792 0.00655042 -0.00623923
11 2 7.0583 7.95768 6.71371 0.00297439 -0.0092604 0.0207086
12 2 7.45664 9.71789 7.79988 -0.0183036 0.00239946 0.00828695
13 1 6.55243 9.40853 4.00024 -0.00292164 -0.00304477 -0.000646675
14 2 6.60668 8.76059 4.66391 -0.00643613 -0.00845243 -0.0147156
15 2 6.9393 8.8775 3.27967 -0.00529521 -0.00142108 0.0107294
16 1 9.67231 7.27783 10.8595 -0.00458395 -0.00433199 6.79799e-05
17 2 9.87223 7.25555 11.866 -0.0275911 0.0086215 -0.0105736
18 2 8.74386 7.0014 10.8513 0.00884513 0.0426498 0.0135982
19 1 4.30372 6.43615 10.6634 0.00145449 0.00383914 -0.00408985
20 2 3.90994 6.90411 11.4758 -0.033772 -0.00546407 0.0111416
21 2 4.17339 8.04557 9.70091 0.0182522 0.0195918 -0.000993116
22 1 10.1317 9.8772 11.2464 0.00435444 0.00297946 0.000361097
23 2 9.73765 9.98801 2.27511 -0.0442449 6.87333e-05 0.00090785
24 2 9.86407 8.96203 10.9935 -0.0342455 -0.0203067 -0.00496584
25 1 4.39955 8.04468 5.58513 0.00165861 0.00653685 0.00352283
26 2 4.72635 8.79865 4.98916 -0.013718 -0.0172755 0.021349
27 2 3.72991 5.94469 5.27674 0.0101971 0.0187765 5.41981e-05
28 1 10.016 6.90838 3.71426 -0.00269616 0.00111457 -0.000797912
29 2 9.30876 6.35262 3.99018 -0.0189804 0.0115848 0.00666608
30 2 9.67346 7.8956 4.15965 0.00366918 -0.00321226 -0.00362605
31 1 11.5469 11.0591 5.26534 -0.00655329 0.0012688 0.00121814
32 2 11.1814 11.9455 5.23994 -0.00784422 0.0130154 -0.0123899
33 2 12.3229 11.0983 4.6865 0.0183248 0.0186976 -0.0257139
34 1 7.71852 5.0401 10.79 -0.00598264 0.000355843 0.000407021
35 2 7.98965 4.09995 10.7511 0.0155387 0.00966505 -0.00750636
36 2 7.05209 4.93625 11.4639 0.0158879 0.000484303 -0.000173655
37 1 8.27502 12.1843 10.0495 -0.00141703 -0.00165163 -8.98374e-05
38 2 8.86661 12.685 9.48774 0.000936605 -0.0123844 -0.0135296
39 2 8.8719 11.6164 10.6079 0.0253706 -0.0134674 -0.0110618
40 1 10.8587 4.04401 4.57044 0.00464923 0.000695614 0.00504787
41 2 11.7398 4.54845 4.73894 0.00328111 0.00844284 -0.023074
42 2 10.2494 4.77524 4.47693 -0.0171474 -0.0239486 0.00817878
43 1 3.62264 5.01669 5.09028 -0.00315146 -0.00113221 0.00458631
44 2 3.63137 7.56665 4.00088 -0.0127766 -0.0271818 0.0349044
45 2 4.95948 4.31507 3.40673 -0.00398064 0.00432113 0.00934095
46 1 9.88384 13.4094 8.08531 -0.00367339 -0.00137589 0.00138496
47 2 9.23897 13.2455 7.34684 0.0103026 -0.0120575 -0.0238037
48 2 10.5985 12.8826 7.79047 0.00255277 0.00686012 -0.0077155
49 1 10.8083 6.10211 8.56195 0.0035683 -0.00227786 0.000815879
50 2 10.5905 5.17385 8.29246 -0.00295538 -0.0327619 -0.00894977
51 2 10.4914 6.24696 9.45806 0.0127027 0.0336552 0.00212904
52 1 9.35382 9.47457 4.21388 -0.000449174 0.00440578 -0.00150076
53 2 10.1016 9.89196 4.73534 0.00528336 0.0306073 0.0111679
54 2 8.567 9.55276 4.76911 -0.0148164 -0.0220233 -0.00166545
55 1 4.43667 11.2949 3.84632 0.00415927 -0.00402259 0.00243686
56 2 5.18522 10.663 3.69978 0.00120737 -0.00565397 0.0146232
57 2 3.81205 11.0172 3.14051 -0.00657842 0.00980255 0.0160066
58 1 6.87348 9.85851 9.31076 0.00553003 -0.00245282 0.00389066
59 2 5.60913 10.5704 6.47984 -0.00699481 0.00936311 -0.0001606
60 2 7.04878 10.8356 9.55229 0.0120973 0.00482554 -0.000882078
61 1 6.30135 4.74646 8.12492 0.00271368 -0.00112866 0.00321112
62 2 6.82235 4.78754 8.91058 -0.00438785 -0.00520229 -0.00845414
63 2 5.3839 4.6011 8.41788 0.00673747 -0.000577872 -0.00905856
64 1 4.895 11.1636 6.73188 -0.00247388 -0.0049379 -0.00284967
65 2 4.52209 11.5145 5.88105 0.0278767 -0.0256149 -0.0134974
66 2 3.8622 12.5956 7.37676 -0.015877 0.0237769 0.00187116
67 1 11.9484 10.5059 7.80894 0.00294926 0.00574014 -0.00217237
68 2 12.0952 10.7989 6.91239 -0.00186901 -0.0104156 0.00575896
69 2 2.9654 10.3513 8.06626 0.00113099 -0.0183165 0.00142309
70 1 8.2549 5.11694 4.68786 0.00194755 -0.000169615 -0.0040408
71 2 8.06904 4.25865 4.93416 -0.0281783 -0.0168398 -0.00107208
72 2 7.70494 5.69666 5.29212 0.00446551 -0.0155127 -0.0173458
73 1 10.3328 8.45266 7.20394 0.00022176 -0.00367243 -0.00280712
74 2 10.6053 7.57379 7.561 -0.000395714 -0.0145489 0.00920118
75 2 10.7526 9.11585 7.78512 0.012799 0.0209845 -0.0144754
76 1 3.62885 13.7178 10.3791 -0.00074346 0.00179765 -0.00187435
77 2 12.7109 13.6005 10.9347 -0.0139604 -0.0110128 -0.000564166
78 2 3.7662 5.63321 10.5778 0.018431 -0.0396376 -0.0341907
79 1 4.22849 9.0804 9.53542 -0.00191513 -0.00494182 0.00238498
80 2 3.70866 9.42138 10.3382 -0.00750662 0.025975 0.00946769
81 2 5.8967 9.79973 9.19649 -0.0142328 -0.00304985 0.000672622
82 1 7.2338 7.85394 11.2193 0.00142969 0.00353596 0.00828863
83 2 6.5087 7.2294 10.8785 -0.0170002 0.0089343 0.0184244
84 2 7.25907 8.57887 10.5374 -0.00796382 0.00144082 -0.00506134
85 1 10.975 13.585 11.8147 0.00105028 0.000260694 0.00261493
86 2 10.1367 4.16742 11.603 -0.00743729 -0.0187657 -0.00849492
87 2 4.41971 13.501 10.9599 0.00312695 0.0133321 0.00398233
88 1 7.57021 12.7776 6.17506 0.00539208 0.000478264 -0.000794228
89 2 6.87175 12.091 6.38534 -0.00226308 0.0210566 0.00689922
90 2 7.33227 13.4849 6.75578 -0.00996992 0.010271 0.0157692
91 1 6.74468 7.07697 6.36197 0.000815015 -0.00510992 -0.00468648
92 2 5.24025 7.47418 5.74148 0.00856504 0.00211552 0.0148938
93 2 6.53362 6.5943 7.14052 -0.00322928 -0.0283733 -0.028663
94 1 3.66404 13.5228 7.73794 -0.00393991 0.00520737 0.0013398
95 2 3.38313 13.4506 8.66394 -0.00147233 0.00330351 -0.0040074
96 2 3.68209 4.67932 5.92508 0.0253924 -0.0211581 -0.056621
ITEM: TIMESTEP
1
ITEM: NUMBER OF ATOMS
96
ITEM: BOX BOUNDS pp pp pp
2.9236100000000000e+00 1.2773600000000000e+01
4.0306300000000004e+00 1.3880599999999999e+01
2.1372399999999998e+00 1.1987200000000000e+01
ITEM: ATOMS id type x y z vx vy vz
1 1 5.40958 13.6859 2.80465 0.00140319 0.00026887 0.000246304
2 2 5.18059 12.7335 2.87112 0.0133537 0.000147639 -0.0168636
3 2 11.0172 13.495 2.99584 0.0138343 0.0090563 -0.00552963
4 1 2.93891 9.88516 11.743 7.98456e-05 -0.00270797 -0.000892992
5 2 11.8211 9.9002 11.4661 0.00418631 -0.0160233 -0.00381793
6 2 3.04318 9.0388 2.39758 0.0142199 -0.0137586 -0.0246144
7 1 3.08978 7.51357 3.17373 0.000469726 0.000757368 0.000590786
8 2 11.9817 7.45892 3.42902 0.0366258 0.0234192 0.00448135
9 2 8.81769 9.07517 7.11133 -0.00695782 0.0101235 -0.0133853
10 1 7.8071 9.37192 6.92428 0.000911521 0.00658669 -0.00637745
11 2 7.06038 7.95448 6.72422 0.00529276 -0.00379831 0.0213156
12 2 7.44772 9.71898 7.80384 -0.0170736 0.00177698 0.00715587
13 1 6.55098 9.40699 3.99983 -0.00290281 -0.00309544 -0.000959824
14 2 6.60339 8.75574 4.65816 -0.00681133 -0.0111143 -0.00785278
15 2 6.93642 8.87751 3.28479 -0.00598688 0.00125905 0.00909198
16 1 9.67011 7.27564 10.8596 -0.00416873 -0.0043898 0.000412713
17 2 9.85905 7.25961 11.8607 -0.0245529 0.00761709 -0.00995786
18 2 8.74651 7.02257 10.8574 0.000523756 0.0415621 0.0101576
19 1 4.30442 6.4382 10.6614 0.00128287 0.00431637 -0.00373004
20 2 3.89379 6.90061 11.4802 -0.0305511 -0.00906075 0.0056697
21 2 4.18313 8.0577 9.69967 0.0204638 0.0280269 -0.00357306
22 1 10.1339 9.87876 11.2466 0.00425763 0.00318654 0.000446788
23 2 9.71569 9.98823 2.27599 -0.0430552 0.000850175 0.00183077
24 2 9.84687 8.95123 10.9903 -0.034029 -0.0216557 -0.00747938
25 1 4.40045 8.04798 5.58677 0.00191742 0.00659552 0.0031014
26 2 4.71901 8.78875 5.00117 -0.0151933 -0.0213496 0.0259142
27 2 3.73504 5.95523 5.27632 0.0102241 0.0222991 -0.00150441
28 1 10.0146 6.90927 3.71394 -0.00278277 0.00242074 -0.00047816
29 2 9.29848 6.357 3.99343 -0.0217744 0.00609637 0.00617592
30 2 9.67698 7.89163 4.15589 0.0104402 -0.0123349 -0.0113163
31 1 11.5436 11.0597 5.2659 -0.006538 0.00124497 0.000953872
32 2 11.1776 11.9524 5.23342 -0.00727727 0.0139485 -0.0135646
33 2 12.332 11.1079 4.67377 0.0170099 0.0193539 -0.0243103
34 1 7.71552 5.04018 10.7902 -0.00599161 3.2691e-07 0.000453361
35 2 7.99778 4.10529 10.7467 0.0169154 0.0115203 -0.00997519
36 2 7.05947 4.93721 11.4641 0.0131947 0.00316717 0.00147008
37 1 8.2743 12.1834 10.0495 -0.00141493 -0.00196397 0.000264873
38 2 8.86764 12.6789 9.48043 0.00290724 -0.0121807 -0.0156311
39 2 8.88415 11.6102 10.6015 0.0231772 -0.0112302 -0.0145654
40 1 10.8612 4.0444 4.57302 0.00516081 0.000845165 0.00526008
41 2 11.7408 4.55161 4.72718 0.000569896 0.00442708 -0.0238485
42 2 10.2398 4.76351 4.48092 -0.0210203 -0.0227505 0.00781361
43 1 3.62105 5.01618 5.09241 -0.00323179 -0.000826874 0.00380534
44 2 3.62433 7.55313 4.01869 -0.0153506 -0.0268231 0.0356575
45 2 4.95556 4.31828 3.41386 -0.0112961 0.00786528 0.0186175
46 1 9.88192 13.4087 8.08595 -0.00400617 -0.00136013 0.00113088
47 2 9.2446 13.2398 7.3357 0.0122564 -0.0106926 -0.0204672
48 2 10.6008 12.8853 7.78655 0.00644261 0.00428522 -0.00777624
49 1 10.8101 6.10097 8.56231 0.00370429 -0.00231985 0.000594286
50 2 10.5888 5.15768 8.28835 -0.003729 -0.0307741 -0.00689783
51 2 10.4974 6.26385 9.45947 0.011354 0.0334694 0.00310577
52 1 9.35367 9.47675 4.21312 -0.00015721 0.004324 -0.00151293
53 2 10.1035 9.90697 4.74078 0.00175107 0.0290995 0.0102172
54 2 8.55949 9.54187 4.76863 -0.0147615 -0.0214605 -0.000495447
55 1 4.43875 11.2928 3.84748 0.00417151 -0.00417277 0.00224144
56 2 5.18574 10.6607 3.7077 0.000850773 -0.0038864 0.0168208
57 2 3.80869 11.0224 3.14878 -0.00680101 0.0106028 0.01686
58 1 6.87623 9.85739 9.31278 0.00544338 -0.0020433 0.00418156
59 2 5.60522 10.5752 6.47946 -0.0081124 0.00952475 -0.00125223
60 2 7.05507 10.8369 9.55162 0.0129415 0.00027795 -0.00184042
61 1 6.30268 4.74592 8.12648 0.00262699 -0.00103456 0.00296734
62 2 6.8203 4.78498 8.90732 -0.00350911 -0.00502725 -0.00409295
63 2 5.38759 4.60061 8.41319 0.00767465 -0.00143319 -0.00953833
64 1 4.89374 11.1612 6.73042 -0.0025796 -0.00474071 -0.00297283
65 2 4.53703 11.5006 5.87486 0.0313962 -0.0294593 -0.0114742
66 2 3.85407 12.609 7.37896 -0.0164774 0.0290498 0.00653579
67 1 11.9498 10.5088 7.80793 0.00259384 0.00580739 -0.00181373
68 2 12.0936 10.7942 6.91324 -0.0045083 -0.0083395 -0.00265458
69 2 2.96822 10.3411 8.06879 0.00973761 -0.0224115 0.00839723
70 1 8.25585 5.11706 4.68583 0.00185768 0.000545241 -0.00407807
71 2 8.0544 4.24752 4.93436 -0.0300985 -0.0266291 0.0014594
72 2 7.70762 5.68843 5.28293 0.00592712 -0.016866 -0.0190232
73 1 10.3329 8.45082 7.20252 0.000158776 -0.003697 -0.00284575
74 2 10.6049 7.56604 7.56589 -0.0014109 -0.0158182 0.01027
75 2 10.7596 9.127 7.7778 0.0151183 0.022944 -0.0151612
76 1 3.62857 13.7187 10.3782 -0.000381549 0.00173926 -0.00169272
77 2 12.7029 13.5948 10.935 -0.0174466 -0.0118491 0.00156981
78 2 3.77549 5.61284 10.5603 0.0192903 -0.0407581 -0.0354693
79 1 4.22749 9.07774 9.53668 -0.00206226 -0.00560164 0.00263364
80 2 3.70525 9.43492 10.3424 -0.00592467 0.0276922 0.00708855
81 2 5.88905 9.79791 9.19696 -0.0156097 -0.00413265 0.00135667
82 1 7.23441 7.85568 11.2234 0.000996005 0.00343555 0.00802418
83 2 6.50155 7.23502 10.8884 -0.0115101 0.0134959 0.0212735
84 2 7.25498 8.57887 10.5355 -0.00833662 -0.0015341 -0.00218382
85 1 10.9755 13.5851 11.816 0.00106282 0.000235839 0.00266663
86 2 10.1333 4.15789 11.599 -0.00604925 -0.0193604 -0.0073652
87 2 4.42046 13.508 10.9617 -0.000231239 0.0148069 0.0031693
88 1 7.57285 12.7777 6.17468 0.00516304 9.10699e-05 -0.000694348
89 2 6.87166 12.1027 6.38837 0.00173363 0.0251683 0.00514101
90 2 7.32678 13.4906 6.76427 -0.0115756 0.0118214 0.0175509
91 1 6.74508 7.07436 6.35953 0.000771046 -0.00530736 -0.00506912
92 2 5.24372 7.47595 5.74905 0.00530817 0.00500417 0.0153485
93 2 6.53148 6.57848 7.12723 -0.00530086 -0.0348594 -0.0243701
94 1 3.66209 13.5253 7.73851 -0.00386986 0.00497518 0.000930634
95 2 3.38245 13.4518 8.66181 -0.00139254 0.00158013 -0.00423448
96 2 3.69497 4.66681 5.89976 0.0263755 -0.0292784 -0.0430458
ITEM: TIMESTEP
2
ITEM: NUMBER OF ATOMS
96
ITEM: BOX BOUNDS pp pp pp
2.9236100000000000e+00 1.2773600000000000e+01
4.0306300000000004e+00 1.3880599999999999e+01
2.1372399999999998e+00 1.1987200000000000e+01
ITEM: ATOMS id type x y z vx vy vz
1 1 5.4104 13.686 2.80458 0.00186864 1.75994e-05 -0.000490348
2 2 5.18688 12.7339 2.86377 0.011744 0.00184491 -0.0124597
3 2 11.0238 13.4999 2.99208 0.0125547 0.0101605 -0.00924343
4 1 2.93896 9.88384 11.7425 0.000111138 -0.00255823 -0.00093347
5 2 11.8226 9.89247 11.464 0.00163073 -0.0148993 -0.00458318
6 2 3.05057 9.03129 2.38574 0.0153657 -0.0161961 -0.0227491
7 1 3.09 7.51395 3.17404 0.00048646 0.000757213 0.000689857
8 2 12.0006 7.47035 3.43141 0.0378402 0.0221811 0.00508432
9 2 8.81212 9.08059 7.10435 -0.0149321 0.0114996 -0.0143473
10 1 7.80769 9.37523 6.92106 0.00143193 0.00662937 -0.00648021
11 2 7.06359 7.95388 6.73503 0.0073747 0.000891184 0.0218305
12 2 7.43957 9.71967 7.80704 -0.0152987 0.000814465 0.00535189
13 1 6.54953 9.40543 3.99928 -0.00289801 -0.00311497 -0.00122759
14 2 6.59987 8.74948 4.65606 -0.00736836 -0.0138468 -0.000475418
15 2 6.93331 8.87876 3.28876 -0.0062078 0.00353366 0.00626477
16 1 9.66814 7.27344 10.8599 -0.00367231 -0.00438103 0.00071092
17 2 9.84768 7.26317 11.856 -0.0204691 0.00658825 -0.00801768
18 2 8.74438 7.04296 10.8615 -0.00976454 0.0397144 0.00591845
19 1 4.305 6.44047 10.6597 0.0010108 0.00469895 -0.00333723
20 2 3.87939 6.89505 11.4815 -0.0268631 -0.0135734 -0.000988892
21 2 4.19385 8.0736 9.69734 0.0221612 0.0343358 -0.00530184
22 1 10.136 9.88039 11.2468 0.00402694 0.0032151 0.000595872
23 2 9.69459 9.98886 2.27694 -0.0407697 0.001668 0.00122835
24 2 9.83004 8.94037 10.986 -0.032756 -0.0205963 -0.00950327
25 1 4.40147 8.05128 5.58823 0.0021068 0.00651287 0.00279224
26 2 4.71116 8.7773 5.01507 -0.0157296 -0.0232104 0.0287428
27 2 3.74013 5.96699 5.27524 0.0100392 0.0234513 -0.00253932
28 1 10.0132 6.9108 3.71378 -0.00291578 0.00363608 -0.000147157
29 2 9.28699 6.35872 3.99636 -0.0237146 0.00104497 0.0053434
30 2 9.6839 7.88327 4.14833 0.0170888 -0.0206073 -0.0186213
31 1 11.5404 11.0603 5.26629 -0.00641555 0.00131536 0.000573646
32 2 11.1741 11.9594 5.22638 -0.00648872 0.0137597 -0.0144665
33 2 12.3399 11.1177 4.66219 0.0136534 0.019519 -0.0212322
34 1 7.71253 5.0401 10.7905 -0.00594404 -0.000308803 0.000439711
35 2 8.00657 4.11147 10.7411 0.0181357 0.012972 -0.0122811
36 2 7.06528 4.93942 11.4654 0.00976194 0.00543118 0.00392058
37 1 8.27361 12.1823 10.0498 -0.0013283 -0.00229353 0.000622529
38 2 8.86952 12.6728 9.47211 0.00425716 -0.0121217 -0.0175118
39 2 8.89508 11.6052 10.5933 0.0201889 -0.00863765 -0.0182882
40 1 10.8639 4.04486 4.5757 0.00564973 0.000945055 0.00545379
41 2 11.7404 4.55288 4.71509 -0.00205657 0.00094274 -0.0243512
42 2 10.2284 4.75249 4.48474 -0.0246092 -0.0212586 0.00753937
43 1 3.61941 5.01586 5.09409 -0.00332586 -0.000350303 0.00284867
44 2 3.61602 7.53983 4.03654 -0.0178223 -0.0263203 0.0350673
45 2 4.94818 4.32294 3.42535 -0.0175527 0.00988029 0.0263608
46 1 9.87983 13.408 8.08644 -0.00431052 -0.00136943 0.000821902
47 2 9.25123 13.2348 7.32637 0.0142199 -0.00901054 -0.0166439
48 2 10.6049 12.8869 7.78269 0.0100671 0.00210857 -0.00742217
49 1 10.812 6.09979 8.56254 0.00381109 -0.00244949 0.000342108
50 2 10.5868 5.14308 8.28556 -0.00432608 -0.0266776 -0.00372996
51 2 10.5028 6.28043 9.46117 0.0101031 0.0324684 0.00321514
52 1 9.35366 9.47889 4.21237 0.00014114 0.00428927 -0.00145168
53 2 10.1034 9.92106 4.74556 -0.00279596 0.0269717 0.008559
54 2 8.55224 9.5313 4.76861 -0.013764 -0.020761 0.000141569
55 1 4.44084 11.2907 3.84856 0.00417828 -0.00426489 0.00209423
56 2 5.18607 10.6591 3.7166 0.000484566 -0.00252685 0.0185341
57 2 3.80525 11.0278 3.15737 -0.0069229 0.0108969 0.0172182
58 1 6.87892 9.85647 9.31494 0.00526979 -0.00163865 0.00444661
59 2 5.60102 10.5799 6.47859 -0.00811835 0.00874986 -0.00204712
60 2 7.06172 10.8359 9.55045 0.0135807 -0.00442945 -0.00280834
61 1 6.30398 4.74543 8.12789 0.00255473 -0.000934057 0.00264857
62 2 6.81884 4.78251 8.90649 -0.00216848 -0.00482052 0.00106571
63 2 5.39157 4.59967 8.40834 0.00790352 -0.002386 -0.00968544
64 1 4.89242 11.1589 6.72891 -0.00268793 -0.00453976 -0.00306949
65 2 4.55349 11.485 5.86958 0.0338723 -0.0323828 -0.00995457
66 2 3.84572 12.6246 7.3833 -0.0166578 0.0324023 0.0103028
67 1 11.951 10.5117 7.80713 0.00228406 0.00584331 -0.00139866
68 2 12.0907 10.7906 6.90974 -0.00668768 -0.0062628 -0.0111636
69 2 2.97514 10.3289 8.07466 0.0169887 -0.0261429 0.0144566
70 1 8.25676 5.11749 4.68378 0.0017689 0.00102633 -0.004107
71 2 8.03894 4.23202 4.93562 -0.0313605 -0.0339706 0.00311674
72 2 7.71087 5.67979 5.2731 0.00668181 -0.0171222 -0.0198837
73 1 10.333 8.44896 7.20109 0.000137512 -0.00372082 -0.00281396
74 2 10.6039 7.55797 7.57127 -0.00256899 -0.015771 0.0111611
75 2 10.7677 9.13879 7.76996 0.0169561 0.0235384 -0.0166154
76 1 3.62847 13.7195 10.3774 -8.07894e-05 0.00169202 -0.00145819
77 2 12.6935 13.5887 10.9363 -0.0198298 -0.0124656 0.00305574
78 2 3.78549 5.59245 10.5423 0.0212248 -0.0397096 -0.0360715
79 1 4.22643 9.0748 9.53805 -0.00219323 -0.00605818 0.00286118
80 2 3.70274 9.44907 10.3453 -0.00399829 0.0284458 0.00423884
81 2 5.88109 9.7956 9.19785 -0.0154706 -0.00498886 0.00233464
82 1 7.2348 7.85738 11.2273 0.000537577 0.00336367 0.00774958
83 2 6.49719 7.2429 10.8998 -0.0060401 0.0177956 0.0241223
84 2 7.25073 8.57734 10.5352 -0.00858023 -0.00450192 0.000909666
85 1 10.9761 13.5852 11.8174 0.00109681 0.000204549 0.00267448
86 2 10.1307 4.14806 11.5956 -0.00471021 -0.0198943 -0.00603127
87 2 4.41948 13.5158 10.9631 -0.00366352 0.0161813 0.00246679
88 1 7.57537 12.7777 6.17437 0.004911 -0.000155003 -0.000512905
89 2 6.87348 12.1162 6.39048 0.00526162 0.0282582 0.00326105
90 2 7.32069 13.4967 6.77333 -0.0123011 0.0122214 0.018059
91 1 6.74545 7.07166 6.3569 0.000736373 -0.0054622 -0.00543885
92 2 5.24556 7.47918 5.75683 0.00220248 0.00781728 0.0157894
93 2 6.52832 6.55944 7.11615 -0.00719835 -0.0409784 -0.0201552
94 1 3.66017 13.5278 7.73887 -0.00381316 0.00485635 0.00052543
95 2 3.38174 13.4522 8.65971 -0.00157008 -7.93453e-05 -0.00391798
96 2 3.70847 4.65004 5.88203 0.0278239 -0.0377087 -0.0271943
ITEM: TIMESTEP
3
ITEM: NUMBER OF ATOMS
96
ITEM: BOX BOUNDS pp pp pp
2.9236100000000000e+00 1.2773600000000000e+01
4.0306300000000004e+00 1.3880599999999999e+01
2.1372399999999998e+00 1.1987200000000000e+01
ITEM: ATOMS id type x y z vx vy vz
1 1 5.41144 13.6859 2.80416 0.00224113 -0.000119132 -0.00110339
2 2 5.19233 12.7353 2.85866 0.00999505 0.00360707 -0.00787995
3 2 11.0298 13.5052 2.9866 0.0110957 0.0111942 -0.0122745
4 1 2.93903 9.8826 11.742 0.00015952 -0.00241621 -0.000978443
5 2 11.8227 9.8853 11.4615 -0.00119506 -0.0137659 -0.00532881
6 2 3.05854 9.0226 2.37483 0.0165034 -0.0183642 -0.0209371
7 1 3.09027 7.51433 3.17442 0.000676832 0.00075204 0.000865204
8 2 12.0195 7.4811 3.43411 0.0361365 0.0207741 0.00571441
9 2 8.80276 9.08667 7.09698 -0.0218526 0.0126256 -0.0149455
10 1 7.80853 9.37855 6.9178 0.00185318 0.00667897 -0.00656438
11 2 7.06776 7.95537 6.74605 0.00902751 0.00428718 0.0221361
12 2 7.43242 9.7198 7.80919 -0.0131531 -0.000372308 0.00314842
13 1 6.54808 9.40387 3.99861 -0.00290433 -0.00313455 -0.00142073
14 2 6.59602 8.74189 4.65768 -0.00805597 -0.0161341 0.00657728
15 2 6.93021 8.88104 3.29105 -0.00604986 0.00538162 0.00261716
16 1 9.66644 7.27126 10.8603 -0.00314579 -0.00431702 0.000968844
17 2 9.83858 7.2662 11.8527 -0.015656 0.00547016 -0.00507854
18 2 8.73674 7.06229 10.8633 -0.0209668 0.0374719 0.0011635
19 1 4.30543 6.4429 10.6581 0.000663158 0.00497082 -0.00294363
20 2 3.86693 6.88704 11.4792 -0.0228997 -0.0186489 -0.00833111
21 2 4.20529 8.09203 9.69437 0.0233538 0.0378874 -0.00609356
22 1 10.1379 9.88198 11.2472 0.00366344 0.00307421 0.000797052
23 2 9.67492 9.9899 2.27722 -0.0374078 0.00248182 -0.000742089
24 2 9.81412 8.93063 10.9808 -0.0303946 -0.0173382 -0.0110023
25 1 4.40256 8.05449 5.58957 0.00220449 0.00627882 0.00261244
26 2 4.70328 8.76554 5.02991 -0.0152325 -0.0224704 0.0295348
27 2 3.74508 5.97868 5.27378 0.00965433 0.0220611 -0.00299499
28 1 10.0117 6.91291 3.71379 -0.00308548 0.00470108 0.000170977
29 2 9.27476 6.35805 3.99877 -0.0246567 -0.00331839 0.00414785
30 2 9.69407 7.87103 4.13727 0.023293 -0.027571 -0.0251627
31 1 11.5372 11.061 5.26647 -0.00620567 0.00147494 0.000100975
32 2 11.1711 11.9661 5.21895 -0.00554596 0.0125604 -0.0150562
33 2 12.3457 11.1274 4.65254 0.00869012 0.0191678 -0.0167738
34 1 7.70957 5.03987 10.7907 -0.00585567 -0.0005649 0.000376054
35 2 8.01592 4.11826 10.7344 0.0191342 0.0139804 -0.0143422
36 2 7.06923 4.94264 11.468 0.00590085 0.00718909 0.00691379
37 1 8.27297 12.1811 10.0502 -0.00116172 -0.00262009 0.000961839
38 2 8.8719 12.6668 9.46292 0.00487089 -0.0122599 -0.0190734
39 2 8.90434 11.6015 10.5832 0.016612 -0.00591269 -0.021978
40 1 10.8668 4.04535 4.57847 0.0060858 0.00099997 0.00562686
41 2 11.7387 4.55256 4.70283 -0.0044062 -0.00183678 -0.0245566
42 2 10.2152 4.74225 4.48846 -0.0276317 -0.0197117 0.00739807
43 1 3.61772 5.01583 5.09526 -0.00342607 0.000246665 0.00183894
44 2 3.60651 7.52681 4.05376 -0.0200622 -0.0256577 0.0331561
45 2 4.93801 4.32816 3.44022 -0.0222725 0.0100169 0.0319556
46 1 9.87761 13.4073 8.08677 -0.00455882 -0.00141165 0.000468888
47 2 9.25882 13.2308 7.31905 0.0160384 -0.00709631 -0.0125739
48 2 10.6108 12.8875 7.77913 0.0131226 0.000493586 -0.00658342
49 1 10.8139 6.09852 8.56265 0.00388978 -0.00264469 7.47795e-05
50 2 10.5845 5.131 8.28462 -0.00477524 -0.0208515 0.000316781
51 2 10.5075 6.29631 9.46269 0.00898068 0.0307266 0.00246415
52 1 9.35381 9.48104 4.21167 0.000427761 0.00430756 -0.00132445
53 2 10.1007 9.93394 4.74934 -0.00811749 0.0243221 0.00631632
54 2 8.54573 9.52111 4.76877 -0.011828 -0.0199267 0.000206372
55 1 4.44293 11.2886 3.84958 0.00417652 -0.00429177 0.00199517
56 2 5.18623 10.6581 3.72623 0.000193099 -0.00166943 0.019735
57 2 3.80177 11.0333 3.166 -0.00697491 0.0106485 0.017042
58 1 6.8815 9.85575 9.31723 0.00501337 -0.00125757 0.00467585
59 2 5.5971 10.584 6.47741 -0.00698262 0.0070249 -0.00245338
60 2 7.06865 10.8325 9.54881 0.0140302 -0.00899924 -0.00371541
61 1 6.30524 4.74498 8.12912 0.00251174 -0.000824096 0.00228128
62 2 6.81814 4.78016 8.90839 -0.000610964 -0.00460064 0.00663225
63 2 5.39549 4.59822 8.4035 0.007435 -0.0034323 -0.00952291
64 1 4.89105 11.1566 6.72735 -0.00279096 -0.00434335 -0.00312905
65 2 4.5709 11.4682 5.8649 0.0351623 -0.0342475 -0.00915026
66 2 3.83741 12.6414 7.38926 -0.0163367 0.0334245 0.0129325
67 1 11.9521 10.5146 7.80654 0.00206847 0.00584749 -0.000954322
68 2 12.0869 10.7879 6.90207 -0.0083641 -0.00448305 -0.0189334
69 2 2.98521 10.315 8.08325 0.022017 -0.0292258 0.0191066
70 1 8.25762 5.11809 4.68172 0.00167517 0.00123577 -0.00412524
71 2 8.02304 4.21355 4.93748 -0.0317868 -0.0383291 0.00382769
72 2 7.7143 5.67131 5.26305 0.00664575 -0.0162353 -0.0198401
73 1 10.333 8.4471 7.1997 0.000161948 -0.00374418 -0.00270879
74 2 10.6023 7.55027 7.57705 -0.00384297 -0.0143768 0.011824
75 2 10.7766 9.15054 7.76119 0.0182926 0.0227457 -0.0188283
76 1 3.62849 13.7204 10.3767 0.000138275 0.00165451 -0.00117438
77 2 12.6831 13.5823 10.9381 -0.020977 -0.0127997 0.00379505
78 2 3.79671 5.57313 10.5242 0.0240363 -0.0366441 -0.0359839
79 1 4.2253 9.07168 9.53954 -0.00230299 -0.00627343 0.0030457
80 2 3.70125 9.46337 10.3467 -0.00187335 0.0283257 0.00116935
81 2 5.87358 9.79292 9.19929 -0.0138736 -0.00559533 0.00358844
82 1 7.23495 7.85904 11.2311 8.42274e-05 0.00332086 0.00749477
83 2 6.49551 7.25281 10.9125 -0.00102922 0.0214491 0.0267903
84 2 7.2464 8.57436 10.5365 -0.00865962 -0.00715144 0.00393453
85 1 10.9766 13.5853 11.8187 0.0011563 0.000165343 0.0026266
86 2 10.1286 4.13799 11.593 -0.00355323 -0.0202995 -0.0045871
87 2 4.41679 13.5242 10.9642 -0.00695571 0.0173917 0.00201561
88 1 7.57776 12.7776 6.17416 0.00465691 -0.000240416 -0.00026105
89 2 6.87692 12.1309 6.39163 0.00799641 0.0300346 0.00135215
90 2 7.31448 13.5028 6.78233 -0.0121281 0.0115002 0.0173127
91 1 6.74581 7.0689 6.35409 0.000710468 -0.00557285 -0.00575242
92 2 5.24592 7.48377 5.76484 -0.000473257 0.0103231 0.016295
93 2 6.52428 6.5375 7.10708 -0.00868821 -0.0461883 -0.0165735
94 1 3.65828 13.5302 7.73903 -0.00377518 0.00487462 0.000136124
95 2 3.38087 13.4517 8.6579 -0.00200722 -0.0016061 -0.00305284
96 2 3.72279 4.6291 5.87256 0.0296058 -0.0455026 -0.0110221
