ITEM: TIMESTEP
0
ITEM: NUMBER OF ATOMS
96
ITEM: BOX BOUNDS pp pp pp
2.9236100000000000e+00 1.2773600000000000e+01
4.0306300000000004e+00 1.3880599999999999e+01
2.1372399999999998e+00 1.1987200000000000e+01
ITEM: ATOMS id type x y z vx vy vz
1 1 5.40886 13.6839 2.80089 0.000582005 -0.00175907 -0.00338536
2 2 5.14892 12.739 2.92045 -0.0174694 0.0053856 0.0313219
3 2 10.9864 13.4812 2.99017 -0.0158699 -0.00517722 -0.0108636
4 1 2.93866 9.89108 11.7447 -0.000288204 0.00312383 0.000886123
5 2 11.8067 9.93604 11.4715 -0.00780981 0.0192763 0.00226783
6 2 3.01851 9.05722 2.45276 -0.0110627 0.00583037 0.0292038
7 1 3.08779 7.51207 3.17239 -0.00190866 -0.000732395 -0.000976458
8 2 11.9307 7.40906 3.42231 -0.00882358 -0.0254758 -0.00220234
9 2 8.79906 9.0603 7.13231 -0.0231991 -0.00557273 0.00706824
10 1 7.8077 9.35893 6.93632 0.00153564 -0.00634378 0.00549579
11 2 7.05884 7.98372 6.68394 0.00302648 0.0239907 -0.0191495
12 2 7.48455 9.71434 7.78794 0.0173293 -0.00136456 -0.0055547
13 1 6.55689 9.41281 4.0005 0.00303408 0.00255466 -0.000238711
14 2 6.61602 8.76909 4.69773 0.0062503 0.00444314 0.0276355
15 2 6.9444 8.88652 3.26356 0.00103844 0.0107441 -0.00907242
16 1 9.67972 7.28395 10.8603 0.005036 0.003679 0.00121698
17 2 9.91638 7.24023 11.8785 0.0287615 -0.0119384 0.00326978
18 2 8.72094 6.93865 10.8265 -0.015738 -0.0384697 -0.017382
19 1 4.30152 6.43165 10.6701 -0.00127775 -0.00212607 0.00469628
20 2 3.96589 6.9081 11.452 0.0395631 0.00243019 -0.0171688
21 2 4.15244 8.03887 9.69445 -0.00899914 0.0111957 -0.0105041
22 1 10.1253 9.87373 11.2458 -0.00397805 -0.00138846 -0.000484239
23 2 9.80364 9.98927 2.2804 0.0423397 0.00129943 0.0100613
24 2 9.9131 8.98219 10.9942 0.0298793 0.00311061 -0.00437027
25 1 4.39774 8.03538 5.57864 -0.000765423 -0.00569621 -0.00521782
26 2 4.74133 8.81066 4.97113 0.00536138 -0.00273115 -0.00154342
27 2 3.71518 5.92877 5.27225 -0.00927372 -0.00162454 -0.00621972
28 1 10.02 6.90968 3.71607 0.00272475 0.00271644 0.00152216
29 2 9.32927 6.3228 3.97987 0.00803427 -0.0274719 -0.00682058
30 2 9.68233 7.87904 4.14809 0.0143764 -0.0247863 -0.0180833
31 1 11.5564 11.0569 5.26334 0.00586425 -0.00184339 -0.00119454
32 2 11.1937 11.9315 5.25522 0.00809273 -0.00390773 0.00769993
33 2 12.2999 11.073 4.7224 -0.00802929 -0.0144287 0.0188736
34 1 7.72726 5.03867 10.7897 0.00554473 -0.00157 0.000102747
35 2 7.96975 4.09047 10.7566 -0.0108666 -0.00283661 -0.00020008
36 2 7.02528 4.94246 11.4648 -0.0179459 0.00904715 -0.000744354
37 1 8.27689 12.1862 10.0503 0.000941731 0.00101481 0.000917225
38 2 8.8709 12.7041 9.50315 0.00696505 0.0128676 0.00725361
39 2 8.83203 11.6397 10.6182 -0.025744 0.0162141 0.00409447
40 1 10.8528 4.04347 4.56339 -0.00326681 5.90541e-05 -0.00433727
41 2 11.7293 4.52591 4.77114 -0.00999192 -0.0216308 0.0196085
42 2 10.2667 4.81202 4.46377 0.0065375 0.0236299 -0.00928639
43 1 3.62723 5.01849 5.0826 0.00298084 0.000974609 -0.0049802
44 2 3.64492 7.60787 3.9542 0.00558025 0.0276066 -0.0252783
45 2 4.9484 4.3189 3.41482 -0.0175156 0.00928969 0.0187386
46 1 9.88864 13.4115 8.08286 0.00281445 0.00147625 -0.00174813
47 2 9.22726 13.2654 7.38767 -0.00601107 0.0136105 0.02889
48 2 10.6029 12.8661 7.801 0.00729857 -0.0148668 0.00601429
49 1 10.8033 6.10576 8.56039 -0.00303028 0.00277915 -0.00112943
50 2 10.5926 5.2201 8.3064 -0.000470702 0.0246874 0.0071489
51 2 10.4693 6.19868 9.45922 -0.016564 -0.0292662 0.0043771
52 1 9.35505 9.46767 4.21588 0.0010924 -0.00482693 0.00104218
53 2 10.0896 9.84481 4.71893 -0.00830395 -0.0309924 -0.00922843
54 2 8.58684 9.58663 4.77545 0.010597 0.0228745 0.00712351
55 1 4.43046 11.3005 3.84209 -0.00412228 0.0033445 -0.0032577
56 2 5.18302 10.6762 3.68407 -0.00129158 0.012118 -0.00576116
57 2 3.82096 11.0056 3.11963 0.00496599 -0.00509775 -0.0113611
58 1 6.86524 9.86305 9.30561 -0.00533504 0.00352476 -0.00297664
59 2 5.61418 10.5592 6.47703 -0.00153241 -0.00439279 -0.00411914
60 2 7.03319 10.8198 9.55177 -0.00833079 -0.0147576 -0.00125105
61 1 6.2971 4.74836 8.11986 -0.00291008 0.00140744 -0.00334743
62 2 6.82881 4.79558 8.92948 0.00286586 0.00539589 0.0143379
63 2 5.37781 4.60033 8.42938 -0.000573547 -0.00147027 0.00574734
64 1 4.89851 11.1714 6.73585 0.00222905 0.00543993 0.00246355
65 2 4.49058 11.5422 5.90641 -0.013315 0.0106588 0.0200544
66 2 3.88382 12.5756 7.38598 0.012767 -0.00211707 0.0143057
67 1 11.9433 10.4975 7.81274 -0.00367435 -0.00535033 0.00272021
68 2 12.0912 10.8177 6.88894 -0.00752874 0.0132271 -0.0216481
69 2 2.98244 10.3698 8.07977 0.0211069 0.00701287 0.0180661
70 1 8.25175 5.11926 4.69383 -0.00228317 0.00301392 0.0039411
71 2 8.10587 4.25796 4.9434 0.0207986 -0.0175608 0.0117509
72 2 7.70316 5.71394 5.31245 0.00266686 0.00618074 0.00906748
73 1 10.3322 8.45811 7.20789 -0.000569267 0.00359573 0.0024053
74 2 10.6041 7.5893 7.54988 -0.00185067 0.00470093 -0.0056188
75 2 10.7398 9.09236 7.80727 -0.00385966 -0.00886173 0.0157761
76 1 3.63086 13.7149 10.3822 0.00190171 -0.00203219 0.00213997
77 2 12.7216 13.6147 10.9416 -0.000337337 0.00791442 0.00890181
78 2 3.73688 5.68374 10.6244 -0.0225533 0.0247188 0.027282
79 1 4.23101 9.08588 9.53237 0.00145553 0.00222363 -0.00173881
80 2 3.7219 9.38946 10.321 0.00903313 -0.0147832 -0.01171
81 2 5.91058 9.80131 9.19615 0.00222315 -0.00114541 -0.000212665
82 1 7.23086 7.84833 11.2064 -0.00233759 -0.00397526 -0.00874475
83 2 6.5449 7.2255 10.8565 0.0294728 0.00248669 -0.0117308
84 2 7.26996 8.57121 10.5498 0.00652524 -0.00752446 0.00998317
85 1 10.9734 13.5846 11.811 -0.00108812 -0.000312315 -0.0023345
86 2 10.1506 4.19435 11.6173 0.0105989 0.0173787 0.00980616
87 2 4.40854 13.4844 10.9524 -0.010723 -0.0089858 -0.0055961
88 1 7.56175 12.7757 6.17621 -0.005773 -0.00213739 0.000609257
89 2 6.88422 12.0705 6.37178 0.013696 -0.00609007 -0.0105798
90 2 7.3412 13.4761 6.73964 0.000814092 -0.000299492 -0.00423758
91 1 6.74332 7.08405 6.36827 -0.00102971 0.00424767 0.00386107
92 2 5.22091 7.47664 5.72055 -0.0160311 0.00429037 -0.0126024
93 2 6.53424 6.62332 7.191 -0.00169721 0.0119045 0.0362396
94 1 3.67012 13.5142 7.73504 0.0041614 -0.00624241 -0.00250077
95 2 3.38619 13.4419 8.66806 0.00289286 -0.00810794 0.000971842
96 2 3.64494 4.69746 6.02652 -0.0245404 0.00663986 0.0684656
ITEM: TIMESTEP
1
ITEM: NUMBER OF ATOMS
96
ITEM: BOX BOUNDS pp pp pp
2.9236100000000000e+00 1.2773600000000000e+01
4.0306300000000004e+00 1.3880599999999999e+01
2.1372399999999998e+00 1.1987200000000000e+01
ITEM: ATOMS id type x y z vx vy vz
1 1 5.40924 13.6829 2.79904 0.000872501 -0.00205814 -0.00391401
2 2 5.14008 12.742 2.93681 -0.0176692 0.00656231 0.0338304
3 2 10.9785 13.4788 2.98385 -0.0154099 -0.00468275 -0.0140557
4 1 2.93848 9.89265 11.7452 -0.000440505 0.00313601 0.000954162
5 2 11.803 9.94578 11.4727 -0.00671366 0.0195404 0.00247763
6 2 3.01306 9.05989 2.46737 -0.010872 0.00520658 0.028875
7 1 3.08669 7.51171 3.17184 -0.00250635 -0.000719524 -0.00124472
8 2 11.9288 7.39636 3.42137 0.00130104 -0.0251889 -0.001504
9 2 8.78616 9.0576 7.13539 -0.0273753 -0.0055506 0.0052565
10 1 7.80862 9.35579 6.93898 0.00209665 -0.0061829 0.00512384
11 2 7.06068 7.99654 6.67446 0.00395062 0.0264012 -0.0188506
12 2 7.4928 9.71395 7.78583 0.0152449 3.28515e-05 -0.00236541
13 1 6.55842 9.41402 4.00032 0.00306856 0.00228489 -0.000425858
14 2 6.61917 8.77132 4.71204 0.00641574 0.0049251 0.0287561
15 2 6.94449 8.89267 3.25946 -0.000665708 0.013702 -0.00709514
16 1 9.68222 7.2857 10.861 0.00491043 0.00329973 0.00168834
17 2 9.93035 7.23396 11.879 0.0265727 -0.0131799 -0.00183039
18 2 8.71373 6.9203 10.8179 -0.0117231 -0.0342868 -0.0163802
19 1 4.30094 6.43073 10.6725 -0.00102241 -0.00158518 0.00468051
20 2 3.98589 6.9096 11.4436 0.0401183 0.00421704 -0.0153283
21 2 4.14883 8.04702 9.68809 -0.0053545 0.0208398 -0.0149913
22 1 10.1234 9.87322 11.2455 -0.00371183 -0.000633271 -0.000611158
23 2 9.8244 9.98992 2.28671 0.0405666 0.00107162 0.0152288
24 2 9.92746 8.98169 10.9912 0.0274258 -0.00535896 -0.00742853
25 1 4.39742 8.03263 5.57588 -0.000533429 -0.00527181 -0.00583744
26 2 4.74317 8.80743 4.97216 0.00196022 -0.00997993 0.00552541
27 2 3.71065 5.92946 5.26856 -0.00884525 0.00423496 -0.00869094
28 1 10.0214 6.91132 3.71687 0.00281842 0.00374799 0.00164812
29 2 9.33236 6.30794 3.97648 0.0045448 -0.0314468 -0.0067482
30 2 9.69075 7.8645 4.13749 0.0187403 -0.0327337 -0.0237249
31 1 11.5592 11.0559 5.26279 0.0054165 -0.00214478 -0.000938107
32 2 11.1977 11.9306 5.25863 0.00788675 0.000536809 0.00588667
33 2 12.2976 11.0662 4.73063 -0.000408999 -0.012509 0.0135086
34 1 7.72997 5.03778 10.7898 0.0052688 -0.00196609 0.000371354
35 2 7.96473 4.08962 10.7559 -0.00919489 -0.000710598 -0.00268891
36 2 7.01652 4.94782 11.464 -0.0166449 0.0123402 -0.00280036
37 1 8.27729 12.1867 10.0508 0.000653694 0.000954248 0.00105296
38 2 8.87507 12.7105 9.50633 0.00959942 0.0125764 0.00564545
39 2 8.81955 11.6477 10.62 -0.0236167 0.0154377 0.00346659
40 1 10.8513 4.04358 4.56128 -0.00293451 0.000394619 -0.00409104
41 2 11.7239 4.51403 4.78061 -0.0111832 -0.0257013 0.01829
42 2 10.2693 4.82349 4.45906 0.00403397 0.0217863 -0.00948415
43 1 3.62871 5.01891 5.08022 0.00292588 0.000672319 -0.00438655
44 2 3.64718 7.62168 3.94276 0.00356933 0.0275892 -0.0201379
45 2 4.93822 4.32454 3.42609 -0.0222614 0.0126711 0.0251801
46 1 9.89 13.4122 8.08198 0.00266696 0.00149686 -0.00172693
47 2 9.22445 13.2722 7.40216 -0.00552523 0.0131681 0.0285126
48 2 10.6071 12.8581 7.80382 0.00898344 -0.0169378 0.00526769
49 1 10.8018 6.10723 8.55983 -0.00284016 0.00313214 -0.00107137
50 2 10.592 5.23094 8.30932 -0.0018731 0.0179013 0.00399443
51 2 10.4608 6.1847 9.46204 -0.017439 -0.0263464 0.00676801
52 1 9.35563 9.46522 4.21634 0.00117179 -0.00497867 0.000785245
53 2 10.0857 9.82954 4.71478 -0.00667412 -0.0298113 -0.00704948
54 2 8.59161 9.59808 4.7795 0.00847572 0.0228583 0.00896952
55 1 4.4284 11.3021 3.84038 -0.00412114 0.00309146 -0.00357629
56 2 5.18247 10.6828 3.68203 -0.000732816 0.0141983 -0.00235507
57 2 3.82324 11.0035 3.11441 0.00404473 -0.00309341 -0.00950899
58 1 6.86261 9.86488 9.30419 -0.00517625 0.00377314 -0.00269538
59 2 5.61248 10.5576 6.47458 -0.00536088 -0.00183171 -0.00570677
60 2 7.02941 10.8119 9.55104 -0.0067148 -0.0160771 -0.00151749
61 1 6.29564 4.74909 8.11821 -0.00291271 0.00150884 -0.00319108
62 2 6.82984 4.79827 8.93664 0.000928939 0.00533133 0.0136815
63 2 5.37817 4.59945 8.43188 0.00203226 -0.0020328 0.00416411
64 1 4.89961 11.1742 6.73706 0.00218488 0.00556073 0.00238283
65 2 4.48526 11.5462 5.91689 -0.00801937 0.00534581 0.0215259
66 2 3.88993 12.5764 7.39445 0.0117772 0.00492035 0.0192556
67 1 11.9414 10.4949 7.81411 -0.00365103 -0.00516241 0.00271836
68 2 12.0866 10.8242 6.87764 -0.0108214 0.0123877 -0.0223797
69 2 2.99414 10.3725 8.09007 0.0243643 0.00417279 0.0224426
70 1 8.25057 5.12101 4.6958 -0.00242554 0.00391172 0.00393806
71 2 8.11566 4.24655 4.95022 0.0185094 -0.0269153 0.015339
72 2 7.70517 5.71601 5.31619 0.00534405 0.00197428 0.00592863
73 1 10.3319 8.4599 7.20905 -0.000693556 0.0035704 0.00224783
74 2 10.603 7.59059 7.54736 -0.00245639 0.000429091 -0.00454325
75 2 10.7387 9.08918 7.81537 -0.000684363 -0.00381232 0.0165445
76 1 3.6319 13.7139 10.3833 0.00220111 -0.00212029 0.00216852
77 2 12.7202 13.6184 10.9467 -0.0051507 0.00690957 0.0114715
78 2 3.72491 5.69432 10.6373 -0.0255205 0.0173583 0.0244663
79 1 4.2317 9.08674 9.53154 0.00132495 0.00124867 -0.00161966
80 2 3.72631 9.38336 10.3153 0.00828965 -0.00926578 -0.0104605
81 2 5.91032 9.80036 9.196 -0.00341936 -0.0026612 -0.000423214
82 1 7.22965 7.8463 11.202 -0.00245665 -0.00414078 -0.00871189
83 2 6.56025 7.22738 10.851 0.0311717 0.00440313 -0.0106901
84 2 7.27311 8.56723 10.5549 0.00608891 -0.0078967 0.0098631
85 1 10.9729 13.5844 11.8099 -0.00110837 -0.000325684 -0.00224705
86 2 10.156 4.20298 11.6221 0.0109862 0.0172782 0.00934567
87 2 4.40279 13.4802 10.9496 -0.0118807 -0.00777215 -0.00540516
88 1 7.55886 12.7745 6.17647 -0.00575968 -0.00270036 0.000425409
89 2 6.89183 12.0687 6.36632 0.0162688 -0.001455 -0.0110424
90 2 7.34064 13.477 6.73874 -0.0031718 0.00369179 0.000696106
91 1 6.74278 7.08609 6.37017 -0.00112908 0.00388404 0.00378556
92 2 5.21257 7.47905 5.71453 -0.0167719 0.00482929 -0.011287
93 2 6.53315 6.62828 7.20919 -0.00234871 0.00862289 0.0355758
94 1 3.67222 13.511 7.7337 0.00421322 -0.00657383 -0.00283856
95 2 3.3878 13.4375 8.66821 0.00355725 -0.00933135 -0.000329735
96 2 3.63269 4.7003 6.05963 -0.0243956 0.00533812 0.0616267
ITEM: TIMESTEP
2
ITEM: NUMBER OF ATOMS
96
ITEM: BOX BOUNDS pp pp pp
2.9236100000000000e+00 1.2773600000000000e+01
4.0306300000000004e+00 1.3880599999999999e+01
2.1372399999999998e+00 1.1987200000000000e+01
ITEM: ATOMS id type x y z vx vy vz
1 1 5.40973 13.6818 2.79698 0.00100749 -0.00227159 -0.00424681
2 2 5.13125 12.7456 2.95428 -0.0174398 0.0076907 0.0357653
3 2 10.971 13.4765 2.97611 -0.0145533 -0.00449292 -0.0164622
4 1 2.93822 9.89422 11.7457 -0.00062744 0.00310493 0.00105967
5 2 11.8 9.95558 11.474 -0.00496327 0.0195378 0.00290829
6 2 3.00764 9.06243 2.48163 -0.0109411 0.00530842 0.0277687
7 1 3.08528 7.51135 3.17115 -0.00312057 -0.000701491 -0.00156273
8 2 11.932 7.38387 3.42081 0.0114671 -0.0246512 -0.000652468
9 2 8.77168 9.05475 7.13757 -0.029368 -0.00624736 0.00352863
10 1 7.8098 9.35275 6.94144 0.00258765 -0.00594798 0.00469819
11 2 7.06279 8.01012 6.66509 0.00407452 0.0269196 -0.0186693
12 2 7.49979 9.71437 7.78557 0.0123666 0.00185848 0.00177011
13 1 6.55996 9.41509 4.00007 0.00308865 0.0019856 -0.000530356
14 2 6.62244 8.77402 4.72649 0.00668266 0.00626655 0.0282246
15 2 6.94373 8.90022 3.25646 -0.00228573 0.0162726 -0.0047827
16 1 9.68463 7.28725 10.862 0.00468235 0.00285488 0.0021459
17 2 9.94295 7.22705 11.8767 0.0234454 -0.0144555 -0.00765051
18 2 8.70922 6.90436 10.8101 -0.0052799 -0.0289537 -0.0144604
19 1 4.3005 6.43006 10.6748 -0.000716976 -0.00112309 0.00455061
20 2 4.00601 6.91232 11.4367 0.0400681 0.00719226 -0.0117737
21 2 4.14709 8.05971 9.67946 -0.00165113 0.0290206 -0.0194456
22 1 10.1216 9.8731 11.2452 -0.00342186 0.00016045 -0.000745909
23 2 9.84421 9.99034 2.29563 0.0386163 0.000305668 0.0202149
24 2 9.94053 8.97683 10.9868 0.0248427 -0.0139029 -0.010041
25 1 4.39721 8.03011 5.5728 -0.000379181 -0.00482051 -0.00643964
26 2 4.74329 8.80068 4.97666 -0.00137295 -0.0165237 0.0120647
27 2 3.70633 5.933 5.26356 -0.00840245 0.00959531 -0.0114964
28 1 10.0228 6.91343 3.71772 0.0029476 0.00455329 0.00170327
29 2 9.33381 6.29135 3.97312 0.00159971 -0.0342687 -0.00674925
30 2 9.70107 7.84631 4.12437 0.0219 -0.039106 -0.0280725
31 1 11.5618 11.0548 5.2624 0.00490631 -0.00245717 -0.00060617
32 2 11.2016 11.932 5.26111 0.00776165 0.00507574 0.00398814
33 2 12.2995 11.0605 4.73591 0.00832288 -0.0104477 0.00739974
34 1 7.73253 5.0367 10.7901 0.00494435 -0.00232759 0.000667008
35 2 7.96056 4.08976 10.7539 -0.00750143 0.00104056 -0.00505583
36 2 7.00864 4.9548 11.462 -0.0145671 0.0154882 -0.00544749
37 1 8.27754 12.1872 10.0514 0.000326366 0.000982173 0.00110135
38 2 8.8805 12.7167 9.5088 0.0119187 0.0118638 0.00447884
39 2 8.80841 11.6551 10.6217 -0.0204583 0.0138033 0.00375827
40 1 10.8499 4.04386 4.5593 -0.00269246 0.000752042 -0.00384819
41 2 11.7181 4.50021 4.78943 -0.0116414 -0.0292828 0.0170077
42 2 10.2707 4.83381 4.45429 0.00225631 0.0190545 -0.00952488
43 1 3.63016 5.01916 5.07821 0.00286135 0.000325752 -0.00350404
44 2 3.64849 7.63546 3.93406 0.00174497 0.0274979 -0.0144212
45 2 4.92614 4.33157 3.44 -0.0250041 0.0147673 0.0291119
46 1 9.89131 13.413 8.08113 0.0026183 0.00150018 -0.00163805
47 2 9.22173 13.2786 7.41618 -0.00562989 0.0122516 0.0270519
48 2 10.6119 12.8492 7.80627 0.00956143 -0.0184532 0.00455877
49 1 10.8005 6.10889 8.55932 -0.00266754 0.00353471 -0.000922051
50 2 10.5907 5.238 8.31039 -0.00327567 0.00991955 -0.000104416
51 2 10.4519 6.17233 9.46599 -0.0179255 -0.0228757 0.00868968
52 1 9.35622 9.46269 4.21667 0.00116647 -0.00510926 0.00050751
53 2 10.0829 9.815 4.71188 -0.00390062 -0.0281244 -0.00427414
54 2 8.59532 9.60949 4.78442 0.0064381 0.0226669 0.0104779
55 1 4.42634 11.3036 3.83851 -0.00413133 0.00284984 -0.00389596
56 2 5.18229 10.6904 3.68171 0.00019476 0.0160272 0.00109499
57 2 3.825 11.0025 3.11012 0.00294147 -0.00106008 -0.00771244
58 1 6.86006 9.86682 9.30291 -0.00501263 0.00394454 -0.00244105
59 2 5.60882 10.5574 6.47132 -0.00926097 0.000830649 -0.00733148
60 2 7.02648 10.8037 9.55025 -0.00496901 -0.0161559 -0.00149271
61 1 6.29419 4.74987 8.11667 -0.00286958 0.00161736 -0.00295223
62 2 6.82974 4.80091 8.94316 -0.00155671 0.0052094 0.0118809
63 2 5.37984 4.5983 8.43354 0.00454393 -0.00257474 0.00245018
64 1 4.90069 11.177 6.73823 0.00216416 0.00565268 0.00235278
65 2 4.48256 11.5475 5.92794 -0.00296305 0.000278226 0.0222272
66 2 3.8956 12.5805 7.40524 0.0110661 0.0108313 0.023426
67 1 11.9396 10.4923 7.81546 -0.00347183 -0.00495336 0.00264816
68 2 12.0804 10.8301 6.86656 -0.0140158 0.0106336 -0.0208778
69 2 3.0068 10.374 8.10221 0.0249036 0.00187554 0.0253563
70 1 8.24932 5.12317 4.69777 -0.00257651 0.00465543 0.00395828
71 2 8.12438 4.23104 4.95874 0.0165246 -0.0336027 0.0184565
72 2 7.7085 5.71591 5.31838 0.00784151 -0.0023667 0.00298319
73 1 10.3315 8.46168 7.21014 -0.000796854 0.00354547 0.00211896
74 2 10.6016 7.58973 7.54534 -0.00308328 -0.00372089 -0.00362337
75 2 10.7391 9.08855 7.82381 0.00233352 0.00110981 0.0169987
76 1 3.63306 13.7128 10.3844 0.00240665 -0.0022054 0.00219045
77 2 12.7164 13.6216 10.9531 -0.00934738 0.00600147 0.0134931
78 2 3.71136 5.7011 10.6489 -0.0286173 0.00989152 0.0216723
79 1 4.23233 9.08713 9.53075 0.00121759 0.000333153 -0.00156822
80 2 3.73019 9.38019 10.3105 0.00697367 -0.00315618 -0.00825873
81 2 5.90716 9.79865 9.19573 -0.009175 -0.0041127 -0.000694118
82 1 7.2284 7.84419 11.1977 -0.00247433 -0.00429405 -0.00856649
83 2 6.57607 7.2299 10.8458 0.0312844 0.00495647 -0.0104657
84 2 7.27605 8.56331 10.5597 0.00573084 -0.00729271 0.00879976
85 1 10.9723 13.5843 11.8088 -0.00112625 -0.000337302 -0.00218519
86 2 10.1616 4.21163 11.6266 0.0109698 0.0174283 0.00839935
87 2 4.39666 13.4766 10.947 -0.0121903 -0.00675023 -0.00468738
88 1 7.55599 12.773 6.17664 -0.00566604 -0.00318251 0.00021289
89 2 6.90049 12.069 6.36074 0.0177824 0.00242039 -0.0110487
90 2 7.33803 13.4798 6.74034 -0.00731694 0.00730127 0.00554971
91 1 6.74219 7.08793 6.37206 -0.0012371 0.00349848 0.00382593
92 2 5.20414 7.48147 5.70926 -0.0163142 0.00427627 -0.00961996
93 2 6.53189 6.63194 7.22658 -0.00239387 0.00667728 0.0330422
94 1 3.67433 13.5076 7.7322 0.00424081 -0.00684057 -0.00313551
95 2 3.38975 13.4326 8.66773 0.00419656 -0.0102349 -0.00149891
96 2 3.62054 4.7028 6.08815 -0.0240635 0.00511051 0.0506392
ITEM: TIMESTEP
3
ITEM: NUMBER OF ATOMS
96
ITEM: BOX BOUNDS pp pp pp
2.9236100000000000e+00 1.2773600000000000e+01
4.0306300000000004e+00 1.3880599999999999e+01
2.1372399999999998e+00 1.1987200000000000e+01
ITEM: ATOMS id type x y z vx vy vz
1 1 5.41025 13.6807 2.7948 0.000973927 -0.00239194 -0.00436723
2 2 5.12264 12.7497 2.97257 -0.0167444 0.00874504 0.0370637
3 2 10.964 13.4743 2.96739 -0.0133351 -0.00463858 -0.0179505
4 1 2.93786 9.89576 11.7462 -0.000840527 0.00303391 0.00120328
5 2 11.798 9.96532 11.4756 -0.00275496 0.019277 0.00350238
6 2 3.00212 9.0652 2.49514 -0.0112411 0.0061147 0.0258825
7 1 3.08357 7.51101 3.17028 -0.00370479 -0.000675582 -0.00191807
8 2 11.9402 7.37171 3.42072 0.0210227 -0.0239472 0.000417241
9 2 8.75679 9.05136 7.13891 -0.0290444 -0.00771497 0.00197112
10 1 7.8112 9.34984 6.94368 0.00299082 -0.00562671 0.00423408
11 2 7.06475 8.02346 6.65579 0.0033601 0.025469 -0.0185796
12 2 7.50517 9.7158 7.7876 0.00886672 0.00396551 0.00654568
13 1 6.56151 9.41601 3.99979 0.00308611 0.00167823 -0.000545237
14 2 6.62586 8.77758 4.74026 0.00705429 0.00830871 0.0261529
15 2 6.94221 8.90894 3.25468 -0.00368902 0.018281 -0.00236106
16 1 9.6869 7.28856 10.8632 0.00438833 0.00236179 0.00256275
17 2 9.9538 7.2195 11.8713 0.0197123 -0.0157408 -0.0136353
18 2 8.70845 6.89135 10.8035 0.00279355 -0.0227997 -0.0118442
19 1 4.30022 6.42961 10.677 -0.000403383 -0.000768236 0.00432334
20 2 4.02596 6.91679 11.4319 0.0395205 0.0109936 -0.00691964
21 2 4.14718 8.07604 9.66864 0.0019507 0.0351153 -0.0236321
22 1 10.12 9.87338 11.2448 -0.0031315 0.000943343 -0.000864476
23 2 9.86302 9.99023 2.30692 0.0366812 -0.00108386 0.0244143
24 2 9.9523 8.96779 10.9812 0.0223144 -0.0216521 -0.0119646
25 1 4.39704 8.02781 5.56944 -0.000320362 -0.0043739 -0.00699841
26 2 4.74179 8.79091 4.98423 -0.00440534 -0.0218158 0.017665
27 2 3.70224 5.93906 5.25707 -0.00796777 0.0140768 -0.0145813
28 1 10.0243 6.91587 3.71857 0.0031102 0.00508061 0.00168179
29 2 9.33396 6.27367 3.96973 -0.000611936 -0.035733 -0.00687267
30 2 9.71265 7.82539 4.10942 0.0236851 -0.0433484 -0.0309043
31 1 11.5641 11.0534 5.26219 0.00437752 -0.00275169 -0.000243771
32 2 11.2055 11.9357 5.26262 0.00788646 0.00927308 0.0020114
33 2 12.3059 11.0558 4.73803 0.0172643 -0.00827677 0.00122452
34 1 7.73491 5.03546 10.7905 0.00458693 -0.00263864 0.000973555
35 2 7.95723 4.09066 10.7508 -0.00582363 0.00227389 -0.00725255
36 2 7.00196 4.96331 11.4586 -0.0119162 0.018369 -0.00846118
37 1 8.27762 12.1877 10.0519 -2.03e-05 0.00109516 0.00106376
38 2 8.88699 12.7224 9.5108 0.0137767 0.0106481 0.0038255
39 2 8.79909 11.6615 10.6237 -0.0164489 0.0114295 0.00486933
40 1 10.8486 4.04433 4.55743 -0.00254679 0.00111362 -0.00361287
41 2 11.7123 4.48474 4.79762 -0.0113055 -0.032221 0.0158259
42 2 10.2715 4.84254 4.44953 0.00123871 0.0155475 -0.00938108
43 1 3.63157 5.01924 5.07671 0.00278478 -2.05348e-05 -0.00240785
44 2 3.64893 7.64918 3.92834 4.07179e-05 0.0273161 -0.0084151
45 2 4.91322 4.33931 3.4552 -0.0255902 0.0154891 0.0303254
46 1 9.89262 13.4137 8.08034 0.00267202 0.00148363 -0.00148886
47 2 9.21882 13.2844 7.42921 -0.00630757 0.010901 0.0245986
48 2 10.6167 12.8396 7.80838 0.00898969 -0.0193418 0.00392929
49 1 10.7992 6.11076 8.55891 -0.00252744 0.0039453 -0.000686631
50 2 10.5887 5.24086 8.30922 -0.00456416 0.00152114 -0.00479771
51 2 10.4428 6.16182 9.47073 -0.0179364 -0.0189981 0.00981791
52 1 9.35679 9.46011 4.21685 0.00107794 -0.00520353 0.000232624
53 2 10.0818 9.80141 4.7105 -0.000243835 -0.0260863 -0.00109125
54 2 8.59805 9.62075 4.78998 0.00473946 0.0222776 0.011464
55 1 4.42427 11.305 3.83649 -0.00415534 0.00263208 -0.00420342
56 2 5.18266 10.6988 3.68312 0.00148444 0.0175112 0.0044766
57 2 3.82618 11.0025 3.1067 0.00169548 0.000890574 -0.00608085
58 1 6.8576 9.86883 9.30175 -0.0048717 0.00403192 -0.00221881
59 2 5.60322 10.5584 6.46725 -0.0129768 0.00337187 -0.0089819
60 2 7.02444 10.7958 9.54955 -0.00314021 -0.0149675 -0.00116573
61 1 6.29277 4.75071 8.11526 -0.00277642 0.00173344 -0.00265079
62 2 6.82828 4.80348 8.94852 -0.00441158 0.00504319 0.00916126
63 2 5.38272 4.59688 8.43433 0.00672257 -0.0031265 0.000681129
64 1 4.90177 11.1798 6.73941 0.00216888 0.00571413 0.00238722
65 2 4.4823 11.5465 5.93911 0.00159031 -0.00431689 0.021946
66 2 3.901 12.5872 7.41787 0.0107822 0.015082 0.0265447
67 1 11.938 10.4899 7.81676 -0.00315183 -0.00473089 0.00253336
68 2 12.0726 10.8349 6.85676 -0.0169592 0.00805674 -0.0174171
69 2 3.01905 10.3744 8.11543 0.0227761 0.000106684 0.0267185
70 1 8.248 5.12566 4.69976 -0.00272517 0.00519386 0.0039998
71 2 8.13219 4.21295 4.96867 0.014876 -0.0371001 0.0209013
72 2 7.71301 5.71365 5.31917 0.00996813 -0.00656685 0.000456435
73 1 10.3311 8.46345 7.21117 -0.000865163 0.0035203 0.00203971
74 2 10.5999 7.58687 7.54373 -0.00378892 -0.00738957 -0.00288618
75 2 10.741 9.09029 7.83237 0.00506186 0.00554935 0.016869
76 1 3.6343 13.7117 10.3855 0.00249809 -0.00228162 0.00222036
77 2 12.7108 13.6244 10.9602 -0.0126196 0.00521409 0.0147573
78 2 3.69629 5.70421 10.659 -0.0313058 0.00305954 0.0190568
79 1 4.23292 9.08708 9.52997 0.00113748 -0.000465387 -0.001587
80 2 3.73328 9.3802 10.3071 0.00520853 0.00326236 -0.00527863
81 2 5.90115 9.79624 9.19531 -0.0145763 -0.00541881 -0.000945394
82 1 7.22717 7.84201 11.1935 -0.00239468 -0.00442029 -0.00830881
83 2 6.59154 7.23234 10.8405 0.0297712 0.00404341 -0.0111189
84 2 7.27884 8.55994 10.5637 0.0054648 -0.0057711 0.00688382
85 1 10.9717 13.5841 11.8077 -0.00114028 -0.000346037 -0.00216061
86 2 10.167 4.22041 11.6305 0.0105747 0.0178314 0.00699316
87 2 4.3906 13.4735 10.9449 -0.0116432 -0.00593687 -0.00340293
88 1 7.55319 12.7713 6.17669 -0.0054914 -0.00353718 -6.12225e-06
89 2 6.90961 12.0711 6.35527 0.0180538 0.00524579 -0.0105871
90 2 7.33333 13.4843 6.74429 -0.011435 0.0101109 0.00994861
91 1 6.74154 7.08958 6.37399 -0.00134969 0.00310108 0.00397314
92 2 5.19625 7.48333 5.70492 -0.0146249 0.00258778 -0.00759845
93 2 6.53076 6.63496 7.24223 -0.00186768 0.00599303 0.0287574
94 1 3.67646 13.5041 7.73057 0.00423656 -0.00701419 -0.00338176
95 2 3.392 13.4273 8.66672 0.00474265 -0.0107468 -0.00239406
96 2 3.60863 4.70541 6.11027 -0.0234528 0.00565584 0.03658
ITEM: TIMESTEP
4
ITEM: NUMBER OF ATOMS
96
ITEM: BOX BOUNDS pp pp pp
2.9236100000000000e+00 1.2773600000000000e+01
4.0306300000000004e+00 1.3880599999999999e+01
2.1372399999999998e+00 1.1987200000000000e+01
ITEM: ATOMS id type x y z vx vy vz
1 1 5.41071 13.6794 2.79261 0.000773464 -0.00242227 -0.0042772
2 2 5.11451 12.7543 2.99134 -0.0155631 0.00967445 0.0376764
3 2 10.9577 13.4719 2.95816 -0.0118112 -0.00512804 -0.0184497
4 1 2.93738 9.89725 11.7469 -0.00106866 0.00292963 0.00138219
5 2 11.7972 9.97486 11.4775 -0.000328989 0.0187858 0.00418303
6 2 2.9964 9.06854 2.50752 -0.0117256 0.00753863 0.0232748
7 1 3.08158 7.51067 3.16923 -0.00421204 -0.00063784 -0.00229778
8 2 11.953 7.35992 3.42122 0.0293292 -0.0231858 0.00177322
9 2 8.74264 9.04703 7.13954 -0.0264765 -0.00993567 0.000659371
10 1 7.81279 9.34712 6.94568 0.00329467 -0.0052136 0.00375162
11 2 7.06615 8.03559 6.64651 0.00186215 0.0221989 -0.0185355
12 2 7.50866 9.71834 7.79212 0.00498534 0.0061615 0.01156
13 1 6.56304 9.41677 3.99953 0.00305398 0.00138604 -0.000469338
14 2 6.62949 8.78232 4.75264 0.00753376 0.0108405 0.0227504
15 2 6.94005 8.9185 3.2541 -0.00475694 0.0195808 -5.6619e-05
16 1 9.68902 7.28961 10.8646 0.00406717 0.00184054 0.00291115
17 2 9.96267 7.21131 11.863 0.0157303 -0.0170259 -0.0191739
18 2 8.71201 6.88156 10.7983 0.0116025 -0.0162022 -0.00876698
19 1 4.30009 6.4293 10.6791 -0.000124292 -0.000535862 0.00402721
20 2 4.04553 6.92331 11.4298 0.0385968 0.0151334 -0.00133271
21 2 4.14904 8.09483 9.65583 0.00528687 0.0385854 -0.0273267
22 1 10.1185 9.87404 11.2443 -0.00285732 0.0016703 -0.000945511
23 2 9.88089 9.98926 2.32004 0.0348927 -0.00313558 0.027307
24 2 9.96284 8.95518 10.9748 0.0199749 -0.027819 -0.0130069
25 1 4.39689 8.02573 5.5658 -0.000366376 -0.00396656 -0.00748915
26 2 4.73888 8.77886 4.99432 -0.00690518 -0.0253719 0.0219715
27 2 3.69837 5.94708 5.24898 -0.00756147 0.0173276 -0.0178134
28 1 10.0259 6.91851 3.7194 0.00330493 0.00529038 0.00157991
29 2 9.3332 6.25562 3.96625 -0.00204181 -0.0356168 -0.00717191
30 2 9.72476 7.80296 4.09346 0.0239739 -0.0449489 -0.0320731
31 1 11.5662 11.052 5.26216 0.00387686 -0.00300223 0.000102601
32 2 11.2095 11.9413 5.26312 0.00840069 0.0127281 -3.32374e-05
33 2 12.3168 11.0522 4.73713 0.0254879 -0.00602268 -0.00434439
34 1 7.73712 5.03407 10.791 0.0042143 -0.00288672 0.0012748
35 2 7.95473 4.09203 10.7467 -0.00421139 0.00289275 -0.00923356
36 2 6.99672 4.97317 11.4535 -0.00891753 0.0208706 -0.0116103
37 1 8.27752 12.1882 10.0524 -0.000364735 0.00128196 0.000950316
38 2 8.89428 12.7273 9.51262 0.0150704 0.00888573 0.00371611
39 2 8.79196 11.6666 10.6265 -0.0118418 0.00851431 0.00660181
40 1 10.8473 4.04498 4.55569 -0.00249709 0.00146 -0.00338823
41 2 11.7068 4.46799 4.80526 -0.0101737 -0.0344005 0.0147936
42 2 10.272 4.84935 4.4449 0.00103174 0.0113499 -0.00900374
43 1 3.63294 5.01914 5.07581 0.00269573 -0.000331529 -0.00117246
44 2 3.64853 7.66278 3.92565 -0.00163021 0.0270153 -0.00241784
45 2 4.90055 4.34706 3.47033 -0.0240715 0.014943 0.028879
46 1 9.89398 13.4145 8.07964 0.00282157 0.00144745 -0.00129028
47 2 9.21543 13.2895 7.44078 -0.00746961 0.00917786 0.0213201
48 2 10.6209 12.8298 7.8102 0.00731758 -0.0195917 0.00339718
49 1 10.7979 6.11284 8.55863 -0.00243311 0.00431875 -0.000378249
50 2 10.5862 5.23952 8.3056 -0.00561982 -0.00645626 -0.00968354
51 2 10.4339 6.15334 9.47581 -0.0174163 -0.0148713 0.00990178
52 1 9.3573 9.45749 4.2169 0.000917794 -0.00524912 -1.53249e-05
53 2 10.0827 9.78891 4.71079 0.00394614 -0.0238797 0.00226272
54 2 8.60006 9.63177 4.79588 0.00357051 0.0216639 0.0117905
55 1 4.42218 11.3062 3.83431 -0.00419462 0.00244763 -0.00448646
56 2 5.18377 10.7079 3.68619 0.00308908 0.0185897 0.00768331
57 2 3.8267 11.0034 3.10404 0.000368418 0.00265639 -0.00470287
58 1 6.85519 9.87086 9.3007 -0.00477801 0.00403419 -0.00203015
59 2 5.59584 10.5607 6.46234 -0.0162637 0.00557224 -0.0106466
60 2 7.02333 10.7888 9.54909 -0.0012862 -0.0125852 -0.000552316
61 1 6.29141 4.7516 8.11402 -0.00263197 0.00185685 -0.00231
62 2 6.82533 4.80595 8.95232 -0.00742899 0.00484993 0.00580104
63 2 5.38656 4.59517 8.43423 0.00834307 -0.00372128 -0.00106974
64 1 4.90286 11.1827 6.74062 0.00220009 0.00574503 0.00249676
65 2 4.48415 11.5432 5.94988 0.0053996 -0.00823763 0.020514
66 2 3.90638 12.5956 7.43178 0.0110567 0.0172611 0.0284168
67 1 11.9365 10.4876 7.81799 -0.00271925 -0.00450375 0.00239936
68 2 12.0634 10.8381 6.84914 -0.0195113 0.00480512 -0.0123913
69 2 3.02958 10.3741 8.12893 0.0182661 -0.00117849 0.026554
70 1 8.2466 5.12837 4.70177 -0.00285709 0.00549895 0.00405507
71 2 8.13926 4.19394 4.97964 0.0135457 -0.0372457 0.0225543
72 2 7.71847 5.70935 5.31884 0.0115488 -0.0103517 -0.00144293
73 1 10.3306 8.4652 7.21218 -0.000887809 0.00349381 0.00202513
74 2 10.5979 7.58234 7.54245 -0.0046181 -0.0102764 -0.00233095
75 2 10.7442 9.0941 7.84068 0.00740212 0.00921566 0.0159478
76 1 3.63556 13.7105 10.3866 0.00246528 -0.00234351 0.00227144
77 2 12.7038 13.6268 10.9678 -0.0147541 0.0045542 0.0151245
78 2 3.68005 5.70416 10.6679 -0.0330562 -0.0024725 0.0167492
79 1 4.23347 9.08666 9.52916 0.00108586 -0.00109202 -0.00167171
80 2 3.7354 9.38346 10.3053 0.00316679 0.00966123 -0.00177627