ITEM: TIMESTEP
0
ITEM: NUMBER OF ATOMS
96
ITEM: BOX BOUNDS pp pp pp
2.9236100000000000e+00 1.2773600000000000e+01
4.0306300000000004e+00 1.3880599999999999e+01
2.1372399999999998e+00 1.1987200000000000e+01
ITEM: ATOMS id type x y z vx vy vz
1 1 5.4104 13.686 2.80458 0.00186864 1.75994e-05 -0.000490348
2 2 5.18688 12.7339 2.86377 0.011744 0.00184491 -0.0124597
3 2 11.0238 13.4999 2.99208 0.0125547 0.0101605 -0.00924343
4 1 2.93896 9.88384 11.7425 0.000111138 -0.00255823 -0.00093347
5 2 11.8226 9.89247 11.464 0.00163073 -0.0148993 -0.00458318
6 2 3.05057 9.03129 2.38574 0.0153657 -0.0161961 -0.0227491
7 1 3.09 7.51395 3.17404 0.00048646 0.000757213 0.000689857
8 2 12.0006 7.47035 3.43141 0.0378402 0.0221811 0.00508432
9 2 8.81212 9.08059 7.10435 -0.0149321 0.0114996 -0.0143473
10 1 7.80769 9.37523 6.92106 0.00143193 0.00662937 -0.00648021
11 2 7.06359 7.95388 6.73503 0.0073747 0.000891184 0.0218305
12 2 7.43957 9.71967 7.80704 -0.0152987 0.000814465 0.00535189
13 1 6.54953 9.40543 3.99928 -0.00289801 -0.00311497 -0.00122759
14 2 6.59987 8.74948 4.65606 -0.00736836 -0.0138468 -0.000475418
15 2 6.93331 8.87876 3.28876 -0.0062078 0.00353366 0.00626477
16 1 9.66814 7.27344 10.8599 -0.00367231 -0.00438103 0.00071092
17 2 9.84768 7.26317 11.856 -0.0204691 0.00658825 -0.00801768
18 2 8.74438 7.04296 10.8615 -0.00976454 0.0397144 0.00591845
19 1 4.305 6.44047 10.6597 0.0010108 0.00469895 -0.00333723
20 2 3.87939 6.89505 11.4815 -0.0268631 -0.0135734 -0.000988892
21 2 4.19385 8.0736 9.69734 0.0221612 0.0343358 -0.00530184
22 1 10.136 9.88039 11.2468 0.00402694 0.0032151 0.000595872
23 2 9.69459 9.98886 2.27694 -0.0407697 0.001668 0.00122835
24 2 9.83004 8.94037 10.986 -0.032756 -0.0205963 -0.00950327
25 1 4.40147 8.05128 5.58823 0.0021068 0.00651287 0.00279224
26 2 4.71116 8.7773 5.01507 -0.0157296 -0.0232104 0.0287428
27 2 3.74013 5.96699 5.27524 0.0100392 0.0234513 -0.00253932
28 1 10.0132 6.9108 3.71378 -0.00291578 0.00363608 -0.000147157
29 2 9.28699 6.35872 3.99636 -0.0237146 0.00104497 0.0053434
30 2 9.6839 7.88327 4.14833 0.0170888 -0.0206073 -0.0186213
31 1 11.5404 11.0603 5.26629 -0.00641555 0.00131536 0.000573646
32 2 11.1741 11.9594 5.22638 -0.00648872 0.0137597 -0.0144665
33 2 12.3399 11.1177 4.66219 0.0136534 0.019519 -0.0212322
34 1 7.71253 5.0401 10.7905 -0.00594404 -0.000308803 0.000439711
35 2 8.00657 4.11147 10.7411 0.0181357 0.012972 -0.0122811
36 2 7.06528 4.93942 11.4654 0.00976194 0.00543118 0.00392058
37 1 8.27361 12.1823 10.0498 -0.0013283 -0.00229353 0.000622529
38 2 8.86952 12.6728 9.47211 0.00425716 -0.0121217 -0.0175118
39 2 8.89508 11.6052 10.5933 0.0201889 -0.00863765 -0.0182882
40 1 10.8639 4.04486 4.5757 0.00564973 0.000945055 0.00545379
41 2 11.7404 4.55288 4.71509 -0.00205657 0.00094274 -0.0243512
42 2 10.2284 4.75249 4.48474 -0.0246092 -0.0212586 0.00753937
43 1 3.61941 5.01586 5.09409 -0.00332586 -0.000350303 0.00284867
44 2 3.61602 7.53983 4.03654 -0.0178223 -0.0263203 0.0350673
45 2 4.94818 4.32294 3.42535 -0.0175527 0.00988029 0.0263608
46 1 9.87983 13.408 8.08644 -0.00431052 -0.00136943 0.000821902
47 2 9.25123 13.2348 7.32637 0.0142199 -0.00901054 -0.0166439
48 2 10.6049 12.8869 7.78269 0.0100671 0.00210857 -0.00742217
49 1 10.812 6.09979 8.56254 0.00381109 -0.00244949 0.000342108
50 2 10.5868 5.14308 8.28556 -0.00432608 -0.0266776 -0.00372996
51 2 10.5028 6.28043 9.46117 0.0101031 0.0324684 0.00321514
52 1 9.35366 9.47889 4.21237 0.00014114 0.00428927 -0.00145168
53 2 10.1034 9.92106 4.74556 -0.00279596 0.0269717 0.008559
54 2 8.55224 9.5313 4.76861 -0.013764 -0.020761 0.000141569
55 1 4.44084 11.2907 3.84856 0.00417828 -0.00426489 0.00209423
56 2 5.18607 10.6591 3.7166 0.000484566 -0.00252685 0.0185341
57 2 3.80525 11.0278 3.15737 -0.0069229 0.0108969 0.0172182
58 1 6.87892 9.85647 9.31494 0.00526979 -0.00163865 0.00444661
59 2 5.60102 10.5799 6.47859 -0.00811835 0.00874986 -0.00204712
60 2 7.06172 10.8359 9.55045 0.0135807 -0.00442945 -0.00280834
61 1 6.30398 4.74543 8.12789 0.00255473 -0.000934057 0.00264857
62 2 6.81884 4.78251 8.90649 -0.00216848 -0.00482052 0.00106571
63 2 5.39157 4.59967 8.40834 0.00790352 -0.002386 -0.00968544
64 1 4.89242 11.1589 6.72891 -0.00268793 -0.00453976 -0.00306949
65 2 4.55349 11.485 5.86958 0.0338723 -0.0323828 -0.00995457
66 2 3.84572 12.6246 7.3833 -0.0166578 0.0324023 0.0103028
67 1 11.951 10.5117 7.80713 0.00228406 0.00584331 -0.00139866
68 2 12.0907 10.7906 6.90974 -0.00668768 -0.0062628 -0.0111636
69 2 2.97514 10.3289 8.07466 0.0169887 -0.0261429 0.0144566
70 1 8.25676 5.11749 4.68378 0.0017689 0.00102633 -0.004107
71 2 8.03894 4.23202 4.93562 -0.0313605 -0.0339706 0.00311674
72 2 7.71087 5.67979 5.2731 0.00668181 -0.0171222 -0.0198837
73 1 10.333 8.44896 7.20109 0.000137512 -0.00372082 -0.00281396
74 2 10.6039 7.55797 7.57127 -0.00256899 -0.015771 0.0111611
75 2 10.7677 9.13879 7.76996 0.0169561 0.0235384 -0.0166154
76 1 3.62847 13.7195 10.3774 -8.07894e-05 0.00169202 -0.00145819
77 2 12.6935 13.5887 10.9363 -0.0198298 -0.0124656 0.00305574
78 2 3.78549 5.59245 10.5423 0.0212248 -0.0397096 -0.0360715
79 1 4.22643 9.0748 9.53805 -0.00219323 -0.00605818 0.00286118
80 2 3.70274 9.44907 10.3453 -0.00399829 0.0284458 0.00423884
81 2 5.88109 9.7956 9.19785 -0.0154706 -0.00498886 0.00233464
82 1 7.2348 7.85738 11.2273 0.000537577 0.00336367 0.00774958
83 2 6.49719 7.2429 10.8998 -0.0060401 0.0177956 0.0241223
84 2 7.25073 8.57734 10.5352 -0.00858023 -0.00450192 0.000909666
85 1 10.9761 13.5852 11.8174 0.00109681 0.000204549 0.00267448
86 2 10.1307 4.14806 11.5956 -0.00471021 -0.0198943 -0.00603127
87 2 4.41948 13.5158 10.9631 -0.00366352 0.0161813 0.00246679
88 1 7.57537 12.7777 6.17437 0.004911 -0.000155003 -0.000512905
89 2 6.87348 12.1162 6.39048 0.00526162 0.0282582 0.00326105
90 2 7.32069 13.4967 6.77333 -0.0123011 0.0122214 0.018059
91 1 6.74545 7.07166 6.3569 0.000736373 -0.0054622 -0.00543885
92 2 5.24556 7.47918 5.75683 0.00220248 0.00781728 0.0157894
93 2 6.52832 6.55944 7.11615 -0.00719835 -0.0409784 -0.0201552
94 1 3.66017 13.5278 7.73887 -0.00381316 0.00485635 0.00052543
95 2 3.38174 13.4522 8.65971 -0.00157008 -7.93453e-05 -0.00391798
96 2 3.70847 4.65004 5.88203 0.0278239 -0.0377087 -0.0271943
ITEM: TIMESTEP
1
ITEM: NUMBER OF ATOMS
96
ITEM: BOX BOUNDS pp pp pp
2.9236100000000000e+00 1.2773600000000000e+01
4.0306300000000004e+00 1.3880599999999999e+01
2.1372399999999998e+00 1.1987200000000000e+01
ITEM: ATOMS id type x y z vx vy vz
1 1 5.41144 13.686 2.80416 0.00224099 -0.000119958 -0.00110341
2 2 5.19233 12.7353 2.85867 0.00999755 0.00361902 -0.00788013
3 2 11.0297 13.5053 2.9866 0.0110977 0.011192 -0.0122689
4 1 2.93903 9.8826 11.742 0.000159782 -0.00241624 -0.000978325
5 2 11.8227 9.88531 11.4615 -0.00119862 -0.0137657 -0.0053305
6 2 3.05854 9.0226 2.37484 0.0165038 -0.0183642 -0.020937
7 1 3.09027 7.51433 3.17442 0.00067662 0.00075204 0.000865287
8 2 12.0195 7.4811 3.43411 0.0361404 0.0207742 0.00571372
9 2 8.80276 9.08666 7.09698 -0.0218532 0.0126257 -0.0149459
10 1 7.80853 9.37856 6.9178 0.00185331 0.00667891 -0.00656433
11 2 7.06775 7.95536 6.74606 0.00902752 0.00428718 0.0221358
12 2 7.43242 9.7198 7.8092 -0.013153 -0.000372408 0.00314807
13 1 6.54808 9.40387 3.99861 -0.00290435 -0.00313447 -0.00142073
14 2 6.59603 8.7419 4.65769 -0.00805576 -0.0161348 0.00657752
15 2 6.93021 8.88104 3.29105 -0.00604958 0.005381 0.00261698
16 1 9.66644 7.27126 10.8603 -0.00314588 -0.00431701 0.000968731
17 2 9.83858 7.2662 11.8526 -0.0156531 0.00547082 -0.00507548
18 2 8.73674 7.06228 10.8633 -0.0209678 0.0374714 0.00116131
19 1 4.30543 6.4429 10.6581 0.000663148 0.00497066 -0.00294377
20 2 3.86693 6.88704 11.4792 -0.0229007 -0.0186503 -0.0083312
21 2 4.20529 8.09204 9.69437 0.0233541 0.0378874 -0.0060939
22 1 10.1379 9.88198 11.2471 0.00366296 0.00307403 0.000797598
23 2 9.67492 9.9899 2.27722 -0.0374031 0.00248199 -0.000749937
24 2 9.81412 8.93063 10.9808 -0.0303927 -0.0173359 -0.0110028
25 1 4.40256 8.0545 5.58956 0.00220451 0.00627878 0.00261245
26 2 4.70329 8.76554 5.02991 -0.0152323 -0.0224703 0.0295348
27 2 3.74508 5.97868 5.27378 0.00965429 0.0220609 -0.00299503
28 1 10.0117 6.91291 3.71379 -0.00308526 0.00470115 0.000170944
29 2 9.27477 6.35805 3.99878 -0.0246589 -0.00331952 0.00414881
30 2 9.69407 7.87103 4.13727 0.0232922 -0.0275707 -0.0251624
31 1 11.5372 11.061 5.26647 -0.006206 0.00147518 0.000101079
32 2 11.1711 11.9661 5.21896 -0.00554561 0.0125582 -0.0150556
33 2 12.3457 11.1274 4.65254 0.0086944 0.0191662 -0.0167764
34 1 7.70958 5.03987 10.7907 -0.00585555 -0.000564878 0.000375898
35 2 8.01592 4.11826 10.7344 0.0191324 0.0139816 -0.0143405
36 2 7.06923 4.94264 11.4681 0.00590089 0.00718698 0.00691445
37 1 8.27298 12.1811 10.0502 -0.00116189 -0.00261956 0.000961344
38 2 8.8719 12.6667 9.46292 0.004868 -0.012261 -0.0190721
39 2 8.90434 11.6016 10.5832 0.0166172 -0.00591953 -0.0219714
40 1 10.8668 4.04535 4.57847 0.00608558 0.00100002 0.00562702
41 2 11.7387 4.55256 4.70282 -0.00440516 -0.00183585 -0.0245565
42 2 10.2153 4.74226 4.48846 -0.0276304 -0.0197125 0.00739857
43 1 3.61772 5.01582 5.09526 -0.00342607 0.000246739 0.00183883
44 2 3.60651 7.52681 4.05376 -0.0200629 -0.0256576 0.0331557
45 2 4.93801 4.32816 3.44023 -0.0222733 0.0100172 0.0319567
46 1 9.8776 13.4073 8.08677 -0.00455922 -0.00141124 0.00046914
47 2 9.25882 13.2307 7.31905 0.0160372 -0.00709684 -0.0125749
48 2 10.6108 12.8875 7.77912 0.0131303 0.000488032 -0.00658638
49 1 10.8139 6.09852 8.56265 0.00388987 -0.00264467 7.46903e-05
50 2 10.5845 5.13101 8.28461 -0.00477591 -0.0208522 0.000317364
51 2 10.5076 6.29632 9.46269 0.00897988 0.0307262 0.00246514
52 1 9.3538 9.48103 4.21167 0.00042807 0.00430766 -0.0013244
53 2 10.1008 9.93394 4.74934 -0.00812212 0.02432 0.00631424
54 2 8.54573 9.52111 4.76877 -0.0118278 -0.0199264 0.000207257
55 1 4.44293 11.2886 3.84958 0.00417656 -0.00429157 0.00199523
56 2 5.18623 10.6581 3.72623 0.000193861 -0.00167065 0.0197343
57 2 3.80177 11.0333 3.166 -0.00697562 0.0106477 0.0170409
58 1 6.8815 9.85575 9.31723 0.00501341 -0.00125742 0.00467587
59 2 5.5971 10.584 6.47741 -0.00698732 0.00702874 -0.00245082
60 2 7.06865 10.8325 9.54881 0.0140299 -0.00900157 -0.00371579
61 1 6.30524 4.74499 8.12913 0.00251166 -0.00082409 0.0022813
62 2 6.81813 4.78015 8.90839 -0.000611137 -0.00460065 0.00663233
63 2 5.39549 4.59823 8.4035 0.00743598 -0.00343224 -0.00952315
64 1 4.89105 11.1567 6.72736 -0.00279055 -0.00434371 -0.00312898
65 2 4.5709 11.4682 5.8649 0.0351602 -0.0342453 -0.00915369
66 2 3.8374 12.6414 7.38926 -0.0163382 0.0334343 0.0129356
67 1 11.9521 10.5146 7.80654 0.00206845 0.00584757 -0.000954468
68 2 12.0869 10.788 6.90208 -0.00836419 -0.00448368 -0.0189311
69 2 2.98521 10.315 8.08325 0.0220179 -0.0292261 0.0191069
70 1 8.25762 5.11809 4.68172 0.00167514 0.00123565 -0.0041252
71 2 8.02304 4.21355 4.93748 -0.0317864 -0.0383281 0.00382717
72 2 7.7143 5.67131 5.26305 0.00664574 -0.0162348 -0.0198401
73 1 10.3331 8.44709 7.1997 0.000161632 -0.0037442 -0.00270899
74 2 10.6023 7.55027 7.57705 -0.00384209 -0.0143772 0.0118246
75 2 10.7766 9.15053 7.76119 0.0182946 0.0227472 -0.0188261
76 1 3.6285 13.7203 10.3767 0.00013859 0.00165462 -0.00117427
77 2 12.6831 13.5823 10.9381 -0.0209815 -0.0128007 0.00379604
78 2 3.79671 5.57313 10.5242 0.0240373 -0.0366415 -0.0359819
79 1 4.2253 9.07168 9.53953 -0.00230303 -0.00627344 0.00304577
80 2 3.70126 9.46337 10.3467 -0.00187294 0.0283259 0.00116828
81 2 5.87358 9.79292 9.1993 -0.013874 -0.00559537 0.00358835
82 1 7.23495 7.85905 11.2311 8.4306e-05 0.00332089 0.00749497
83 2 6.49551 7.25282 10.9126 -0.00103046 0.0214487 0.0267886
84 2 7.2464 8.57437 10.5364 -0.00866012 -0.00715111 0.00393326
85 1 10.9767 13.5853 11.8187 0.00115605 0.000165506 0.00262608
86 2 10.1287 4.13799 11.5929 -0.00355121 -0.0203006 -0.00458733
87 2 4.41679 13.5242 10.9642 -0.00695547 0.0173922 0.00201348
88 1 7.57776 12.7776 6.17417 0.00465703 -0.000240512 -0.000261222
89 2 6.87691 12.131 6.39163 0.00799474 0.030032 0.0013521
90 2 7.31447 13.5028 6.78233 -0.0121283 0.0115042 0.017315
91 1 6.74581 7.0689 6.35409 0.000710476 -0.00557281 -0.0057524
92 2 5.24592 7.48377 5.76484 -0.000473605 0.0103235 0.0162948
93 2 6.52428 6.5375 7.10708 -0.00868832 -0.0461886 -0.0165735
94 1 3.65828 13.5302 7.73903 -0.00377508 0.00487396 0.000136001
95 2 3.38088 13.4518 8.6579 -0.00200709 -0.00160571 -0.00305457
96 2 3.7228 4.6291 5.87256 0.0296061 -0.0455036 -0.0110204
ITEM: TIMESTEP
2
ITEM: NUMBER OF ATOMS
96
ITEM: BOX BOUNDS pp pp pp
2.9236100000000000e+00 1.2773600000000000e+01
4.0306300000000004e+00 1.3880599999999999e+01
2.1372399999999998e+00 1.1987200000000000e+01
ITEM: ATOMS id type x y z vx vy vz
1 1 5.41264 13.6859 2.80348 0.00250006 -0.000129781 -0.00156641
2 2 5.19688 12.7375 2.85589 0.0081594 0.00535278 -0.00321166
3 2 11.0349 13.5111 2.97981 0.00953667 0.0121103 -0.0143851
4 1 2.93912 9.88142 11.7415 0.000214895 -0.00229552 -0.00102442
5 2 11.8214 9.8787 11.4587 -0.00402197 -0.0126775 -0.00595042
6 2 3.06707 9.01293 2.3648 0.0175407 -0.0200452 -0.0193253
7 1 3.09068 7.5147 3.17491 0.00103023 0.000739512 0.00111115
8 2 12.0367 7.49112 3.43712 0.0315528 0.0192872 0.00633897
9 2 8.79027 9.09322 7.0894 -0.0271982 0.0133598 -0.0151476
10 1 7.80954 9.38191 6.9145 0.00214878 0.0067401 -0.00664434
11 2 7.07262 7.95817 6.75717 0.0101114 0.00601096 0.0221062
12 2 7.42642 9.7193 7.81019 -0.0108077 -0.00166767 0.000809772
13 1 6.54663 9.4023 3.99786 -0.00291704 -0.00318718 -0.0015186
14 2 6.59181 8.73335 4.66264 -0.00878951 -0.017489 0.0124333
15 2 6.92726 8.88414 3.29138 -0.00567646 0.00683514 -0.00131035
16 1 9.66499 7.26912 10.8609 -0.00264464 -0.00420871 0.00119701
17 2 9.83203 7.26864 11.8509 -0.0104923 0.00420117 -0.00157114
18 2 8.72341 7.08043 10.8627 -0.0318981 0.0351543 -0.00378417
19 1 4.30566 6.44544 10.6568 0.000271998 0.00512442 -0.00258285
20 2 3.85649 6.8764 11.4732 -0.0189118 -0.0238901 -0.0157706
21 2 4.2172 8.11149 9.69125 0.0240916 0.0382153 -0.0059004
22 1 10.1397 9.88346 11.2476 0.00317722 0.00278309 0.00103491
23 2 9.65719 9.99134 2.27619 -0.033066 0.00327396 -0.00381552
24 2 9.79965 8.92303 10.975 -0.0269827 -0.0122547 -0.0119874
25 1 4.40367 8.05756 5.59084 0.00219721 0.00589271 0.00256952
26 2 4.69593 8.75483 5.0446 -0.0136774 -0.0189457 0.0281492
27 2 3.74978 5.98905 5.27224 0.00911122 0.0183532 -0.00289851
28 1 10.0101 6.9155 3.71395 -0.00327537 0.00556081 0.000448419
29 2 9.26233 6.3554 4.00051 -0.0245577 -0.00680642 0.00261445
30 2 9.70719 7.8557 4.12317 0.0287333 -0.032741 -0.0305758
31 1 11.5342 11.0618 5.26639 -0.00593169 0.00171306 -0.000438137
32 2 11.1686 11.972 5.21132 -0.00453953 0.010537 -0.0153044
33 2 12.3486 11.1369 4.64541 0.00263632 0.0183014 -0.0113015
34 1 7.70667 5.03954 10.7909 -0.00574409 -0.000767192 0.000276171
35 2 8.0257 4.12545 10.7268 0.019838 0.0145472 -0.0160753
36 2 7.07118 4.94661 11.4723 0.00197264 0.00837009 0.0101198
37 1 8.27245 12.1797 10.0508 -0.000924847 -0.00292377 0.00126301
38 2 8.87439 12.6605 9.45304 0.00467982 -0.012612 -0.0202528
39 2 8.9117 11.5993 10.5713 0.0126889 -0.00330002 -0.0253729
40 1 10.87 4.04586 4.58133 0.00644081 0.00101548 0.0057787
41 2 11.736 4.55104 4.69053 -0.00630059 -0.0037709 -0.0244562
42 2 10.2008 4.73278 4.49214 -0.029831 -0.0183286 0.00742062
43 1 3.61598 5.01611 5.09593 -0.00351867 0.000894125 0.000893548
44 2 3.59596 7.51417 4.0697 -0.0219579 -0.0248269 0.0300054
45 2 4.92591 4.33296 3.45731 -0.0251857 0.00818812 0.0350733
46 1 9.87527 13.4066 8.08691 -0.00472985 -0.00149116 8.55715e-05
47 2 9.26727 13.2277 7.3138 0.0175604 -0.00504283 -0.00850854
48 2 10.618 12.8874 7.7761 0.0153916 -0.000463108 -0.00522779
49 1 10.8159 6.09715 8.56261 0.00394498 -0.00287936 -0.000195182
50 2 10.582 5.12223 8.28588 -0.00511665 -0.0137693 0.00497603
51 2 10.5118 6.31116 9.46364 0.00798113 0.0283544 0.000967669
52 1 9.35409 9.4832 4.21105 0.000687135 0.00438027 -0.00114444
53 2 10.0953 9.94538 4.75187 -0.0139324 0.0212808 0.0036521
54 2 8.54041 9.51137 4.76882 -0.0090514 -0.0189624 -0.000276935
55 1 4.44502 11.2864 3.85056 0.00416339 -0.00425016 0.00194092
56 2 5.18626 10.6574 3.73633 4.20751e-05 -0.00137462 0.0204186
57 2 3.79827 11.0384 3.17441 -0.00697667 0.00984824 0.0163317
58 1 6.88393 9.85521 9.31962 0.00468411 -0.000917904 0.00486123
59 2 5.59403 10.5869 6.47614 -0.0047655 0.00440878 -0.00236503
60 2 7.07575 10.8269 9.54673 0.0143127 -0.0131389 -0.0044945
61 1 6.30649 4.74461 8.13017 0.00251008 -0.000702611 0.00189677
62 2 6.81823 4.77791 8.91312 0.000884114 -0.0043849 0.0121668
63 2 5.39901 4.59624 8.39882 0.00635243 -0.00455939 -0.00909711
64 1 4.88963 11.1546 6.72578 -0.00287875 -0.00416102 -0.00314448
65 2 4.58865 11.4508 5.86043 0.0351787 -0.0349655 -0.00923951
66 2 3.82938 12.658 7.39624 -0.015474 0.0319013 0.0142801
67 1 11.9531 10.5175 7.80618 0.00197456 0.00581942 -0.000507923
68 2 12.0823 10.7861 6.89081 -0.00955545 -0.00320019 -0.0253345
69 2 2.99716 10.2997 8.09377 0.0243691 -0.0314682 0.0220956
70 1 8.25844 5.11873 4.67965 0.00157158 0.00116209 -0.00413251
71 2 8.00715 4.19369 4.93945 -0.0312736 -0.0395101 0.00361749
72 2 7.71752 5.66356 5.25326 0.0058001 -0.0142283 -0.0188783
73 1 10.3332 8.44522 7.19838 0.000231499 -0.00376734 -0.00253518
74 2 10.6001 7.54359 7.58309 -0.00518543 -0.011716 0.0122293
75 2 10.786 9.16154 7.75113 0.0191642 0.0206697 -0.0217002
76 1 3.62861 13.7212 10.3762 0.000263219 0.00162417 -0.00084916
77 2 12.6725 13.5759 10.9401 -0.0208683 -0.0128072 0.00375939
78 2 3.80953 5.55581 10.5063 0.027463 -0.0318553 -0.0352456
79 1 4.22413 9.06853 9.5411 -0.00238945 -0.00622222 0.00316903
80 2 3.70087 9.4774 10.3465 0.000307614 0.0274445 -0.00188048
81 2 5.86722 9.79 9.20144 -0.0109793 -0.00593878 0.00508026
82 1 7.23488 7.8607 11.2348 -0.000333851 0.00330767 0.00728911
83 2 6.49616 7.26435 10.9266 0.00307942 0.0241321 0.0291098
84 2 7.24207 8.57019 10.5391 -0.00855511 -0.0091933 0.00660687
85 1 10.9773 13.5854 11.82 0.00124319 0.000117454 0.00251245
86 2 10.1271 4.12776 11.591 -0.00269049 -0.0205257 -0.00312303
87 2 4.41252 13.5332 10.9651 -0.00990617 0.0183854 0.00193387
88 1 7.58003 12.7775 6.17411 0.00442247 -0.000157283 4.4159e-05
89 2 6.88147 12.1462 6.39183 0.00965152 0.0302719 -0.000498669
90 2 7.30856 13.5082 6.79065 -0.0110918 0.00979853 0.0154325
91 1 6.74616 7.06609 6.35115 0.00068967 -0.00564648 -0.00597532
92 2 5.24509 7.4895 5.77312 -0.0025067 0.01235 0.0169269
93 2 6.51963 6.51325 7.09958 -0.00957991 -0.050026 -0.0140571
94 1 3.65639 13.5327 7.73901 -0.00375946 0.00504105 -0.000225058
95 2 3.37973 13.4506 8.65666 -0.002681 -0.00293679 -0.00170184
96 2 3.73808 4.60454 5.87101 0.0314617 -0.0517971 0.00366366
ITEM: TIMESTEP
3
ITEM: NUMBER OF ATOMS
96
ITEM: BOX BOUNDS pp pp pp
2.9236100000000000e+00 1.2773600000000000e+01
4.0306300000000004e+00 1.3880599999999999e+01
2.1372399999999998e+00 1.1987200000000000e+01
ITEM: ATOMS id type x y z vx vy vz
1 1 5.41394 13.6858 2.8026 0.00263829 -1.17575e-05 -0.00186954
2 2 5.20049 12.7406 2.85546 0.00628103 0.00691235 0.0014486
3 2 11.0393 13.5174 2.97222 0.00794463 0.0128877 -0.0154168
4 1 2.93924 9.8803 11.741 0.000266045 -0.00220804 -0.00107006
5 2 11.8187 9.87263 11.4556 -0.00655516 -0.0116812 -0.00633844
6 2 3.07608 9.00256 2.35551 0.0183825 -0.0210538 -0.0180247
7 1 3.0913 7.51507 3.17553 0.0015216 0.000717254 0.00142011
8 2 12.051 7.50039 3.44045 0.0243799 0.017809 0.00689583
9 2 8.77556 9.10002 7.08183 -0.0305514 0.0135877 -0.0149382
10 1 7.81067 9.3853 6.91115 0.00229636 0.00681485 -0.00673242
11 2 7.07787 7.96138 6.76816 0.0105472 0.0058506 0.0216227
12 2 7.42161 9.71813 7.81001 -0.00841548 -0.00296677 -0.00143773
13 1 6.54516 9.40068 3.99709 -0.00293208 -0.00329804 -0.00151209
14 2 6.58724 8.72441 4.67012 -0.00950127 -0.0175856 0.0165194
15 2 6.92453 8.88788 3.28974 -0.0052353 0.00796165 -0.00508879
16 1 9.66379 7.26705 10.8615 -0.00221925 -0.0040656 0.00140842
17 2 9.82809 7.2704 11.8511 -0.00539813 0.00273182 0.0019966
18 2 8.70484 7.09744 10.8595 -0.0413902 0.0329865 -0.00857823
19 1 4.3057 6.44803 10.6555 -0.00012616 0.00516112 -0.0022876
20 2 3.84802 6.86315 11.4635 -0.0151951 -0.0288812 -0.0226739
21 2 4.22938 8.13025 9.68847 0.0244574 0.0351063 -0.00471531
22 1 10.1411 9.88477 11.2482 0.00258949 0.00237015 0.00128827
23 2 9.64185 9.99317 2.2734 -0.0279397 0.00404678 -0.00760383
24 2 9.78713 8.91838 10.9688 -0.0226393 -0.00584705 -0.0125067
25 1 4.40476 8.06039 5.59213 0.00208267 0.00536749 0.00265772
26 2 4.68961 8.74659 5.05806 -0.0111312 -0.0127345 0.0246639
27 2 3.75419 5.99703 5.27089 0.00846186 0.0126975 -0.00229547
28 1 10.0084 6.91847 3.71424 -0.0034656 0.00616754 0.00065711
29 2 9.25021 6.35124 4.00139 -0.0234556 -0.00929271 0.000802907
30 2 9.7228 7.83829 4.10669 0.0331218 -0.0356221 -0.0345419
31 1 11.5313 11.0627 5.26603 -0.00561635 0.00201319 -0.00101809
32 2 11.1665 11.9766 5.20365 -0.00357607 0.00794368 -0.0151979
33 2 12.3483 11.1457 4.64123 -0.00398092 0.0169558 -0.00520317
34 1 7.70383 5.03911 10.791 -0.00562942 -0.000916091 0.00015677
35 2 8.03576 4.13281 10.7183 0.0201929 0.0146948 -0.0174176
36 2 7.0712 4.95101 11.4782 -0.00166258 0.00894038 0.0131857
37 1 8.27205 12.1781 10.0515 -0.000630856 -0.00318956 0.00151205
38 2 8.87658 12.6541 9.44267 0.00368471 -0.0131527 -0.0210349
39 2 8.91703 11.5983 10.5578 0.00865284 -0.00100919 -0.028258
40 1 10.8733 4.04637 4.58425 0.00669261 0.000996666 0.00590917
41 2 11.7324 4.54879 4.67837 -0.00759463 -0.0047664 -0.0240583
42 2 10.1854 4.72393 4.49588 -0.0310104 -0.0172787 0.00762131
43 1 3.6142 5.01672 5.09615 -0.00358613 0.0015186 0.000108042
44 2 3.58455 7.50199 4.08376 -0.0234202 -0.0238284 0.0257572
45 2 4.91282 4.33635 3.4753 -0.0262206 0.00454414 0.0356553
46 1 9.87287 13.4058 8.08685 -0.00480724 -0.00161104 -0.000313431
47 2 9.27638 13.2257 7.31054 0.0186487 -0.00294255 -0.00469377
48 2 10.6262 12.887 7.7739 0.0167085 -0.000700024 -0.00334522
49 1 10.8179 6.09564 8.56245 0.00398358 -0.00312604 -0.000457932
50 2 10.5794 5.11724 8.28959 -0.00539575 -0.00595315 0.00997408
51 2 10.5155 6.32467 9.46366 0.00707229 0.0254911 -0.00108022
52 1 9.35449 9.48541 4.21052 0.000904656 0.00450194 -0.000930316
53 2 10.0868 9.95522 4.75299 -0.0198934 0.018024 0.000781178
54 2 8.53668 9.50215 4.76849 -0.00561903 -0.017881 -0.00123145
55 1 4.44709 11.2843 3.85152 0.00413617 -0.00414217 0.00192513
56 2 5.18627 10.6567 3.74665 6.45251e-05 -0.00165525 0.020606
57 2 3.79479 11.0431 3.18233 -0.00692571 0.00851751 0.0151354
58 1 6.88618 9.85483 9.32209 0.0042962 -0.000637162 0.00499712
59 2 5.59234 10.5884 6.47505 -0.00154485 0.000970634 -0.00165995
60 2 7.08296 10.8194 9.54431 0.014461 -0.0165559 -0.00508152
61 1 6.30775 4.74429 8.13102 0.00255782 -0.000568973 0.00152763
62 2 6.81902 4.77577 8.92056 0.00204298 -0.00418607 0.0172284
63 2 5.40184 4.59367 8.3944 0.00479582 -0.00574602 -0.00847306
64 1 4.88817 11.1525 6.72421 -0.00294261 -0.00400042 -0.00311424
65 2 4.60608 11.4332 5.85566 0.0338701 -0.0344878 -0.0103468
66 2 3.82193 12.6733 7.40354 -0.0140677 0.0277945 0.0142983
67 1 11.954 10.5204 7.80603 0.00201045 0.00575865 -8.38322e-05
68 2 12.0773 10.7848 6.87674 -0.0102811 -0.00254014 -0.029895
69 2 3.00958 10.2835 8.10534 0.0239186 -0.032749 0.0233213
70 1 8.25919 5.11925 4.67759 0.00145443 0.000819672 -0.00412956
71 2 7.99177 4.17404 4.94109 -0.0298023 -0.0376274 0.00259177
72 2 7.7201 5.65708 5.24417 0.00420285 -0.0112075 -0.0170672
73 1 10.3333 8.44333 7.19716 0.00034297 -0.00378993 -0.00230389
74 2 10.5971 7.53855 7.58928 -0.0065388 -0.00796682 0.0123686
75 2 10.7957 9.1712 7.73949 0.0196428 0.0175133 -0.0250721
76 1 3.62876 13.722 10.3759 0.000287553 0.00159676 -0.000494146
77 2 12.6623 13.5695 10.9419 -0.0195548 -0.0124601 0.00297566
78 2 3.82417 5.54127 10.489 0.0312132 -0.0257438 -0.0339539
79 1 4.22291 9.06546 9.5427 -0.00245319 -0.00589747 0.00321807
80 2 3.70156 9.49081 10.3448 0.0024173 0.0259209 -0.0046983
81 2 5.8626 9.78698 9.20438 -0.00702982 -0.00601578 0.00675789
82 1 7.23462 7.86236 11.2384 -0.000689719 0.00332547 0.00715795
83 2 6.49859 7.27695 10.9417 0.00591207 0.0255418 0.0309426
84 2 7.23784 8.56517 10.543 -0.00826362 -0.0103896 0.008677
85 1 10.9779 13.5854 11.8212 0.00135855 5.99143e-05 0.00232732
86 2 10.126 4.11747 11.5898 -0.00221488 -0.0205371 -0.00171778
87 2 4.40689 13.5426 10.9661 -0.0123416 0.0191205 0.00232349
88 1 7.58218 12.7774 6.17421 0.00422661 9.07745e-05 0.000383685
89 2 6.88656 12.1612 6.39113 0.0100222 0.0288531 -0.00222067
90 2 7.30338 13.5126 6.79776 -0.00927374 0.00731529 0.0126042
91 1 6.7465 7.06325 6.34812 0.000671388 -0.00569057 -0.00608402
92 2 5.24342 7.49612 5.78177 -0.00376779 0.0138003 0.0177219
93 2 6.5147 6.48748 7.09302 -0.00974646 -0.0521576 -0.0128697
94 1 3.65452 13.5353 7.73881 -0.00376789 0.00535558 -0.00054683
95 2 3.3782 13.4488 8.6562 -0.00354544 -0.00401838 1.87614e-05
96 2 3.75426 4.5773 5.87622 0.0330606 -0.055812 0.0154083
ITEM: TIMESTEP
4
ITEM: NUMBER OF ATOMS
96
ITEM: BOX BOUNDS pp pp pp
2.9236100000000000e+00 1.2773600000000000e+01
4.0306300000000004e+00 1.3880599999999999e+01
2.1372399999999998e+00 1.1987200000000000e+01
ITEM: ATOMS id type x y z vx vy vz
1 1 5.41528 13.6859 2.80161 0.00265853 0.000223577 -0.00201649
2 2 5.20316 12.7444 2.85734 0.00441871 0.00815672 0.00599741
3 2 11.0428 13.524 2.96439 0.00638667 0.0135125 -0.0152594
4 1 2.93939 9.87922 11.7405 0.000303861 -0.00216302 -0.00111462
5 2 11.8148 9.86702 11.4523 -0.00853314 -0.0108125 -0.00640418
6 2 3.08546 8.99187 2.34678 0.0189444 -0.0212524 -0.017104
7 1 3.0922 7.51542 3.17633 0.00210922 0.000683522 0.00178395
8 2 12.0611 7.50893 3.44402 0.0152063 0.0164151 0.00728317
9 2 8.75972 9.1068 7.07447 -0.0316322 0.0132293 -0.0143252
10 1 7.81184 9.38872 6.90776 0.00228097 0.0069023 -0.0068372
11 2 7.08316 7.96402 6.77879 0.010319 0.00377272 0.0205891
12 2 7.418 9.71633 7.80875 -0.00609946 -0.00418552 -0.00343159
13 1 6.54369 9.399 3.99635 -0.00294739 -0.00347745 -0.00140436
14 2 6.58231 8.71576 4.67916 -0.0101565 -0.016336 0.0186878
15 2 6.92203 8.8921 3.28629 -0.00480652 0.00883179 -0.00852585
16 1 9.66277 7.26506 10.8623 -0.00190803 -0.00389564 0.00161461
17 2 9.82663 7.27137 11.8529 -0.00075993 0.00104129 0.00513354
18 2 8.68202 7.11342 10.8541 -0.0484488 0.0310679 -0.0129092
19 1 4.30554 6.4506 10.6545 -0.000493326 0.00508887 -0.0020894
20 2 3.84129 6.84752 11.4505 -0.0120825 -0.0332352 -0.0284042
21 2 4.24166 8.14659 9.68653 0.024554 0.0286806 -0.00258065
22 1 10.1423 9.88583 11.2489 0.00192646 0.00186883 0.001537
23 2 9.62925 9.99539 2.26859 -0.0222649 0.00482073 -0.011702
24 2 9.77701 8.91719 10.9625 -0.0175402 0.00132875 -0.0126444
25 1 4.40576 8.06293 5.5935 0.00187068 0.00473204 0.00285598
26 2 4.6848 8.7421 5.06927 -0.00777123 -0.00427412 0.0194228
27 2 3.75825 6.00175 5.26995 0.00776061 0.00554434 -0.00124174
28 1 10.0066 6.92167 3.71461 -0.00363412 0.00648556 0.000772581
29 2 9.23888 6.34611 4.00131 -0.0214712 -0.0107191 -0.00119553
30 2 9.74031 7.82008 4.08863 0.0362253 -0.035752 -0.0368196
31 1 11.5286 11.0638 5.26537 -0.00528372 0.00235652 -0.00161337
32 2 11.165 11.9799 5.19613 -0.00276439 0.0050568 -0.0147359
33 2 12.3446 11.1538 4.64021 -0.0106154 0.0151843 0.00111145
34 1 7.70105 5.03862 10.791 -0.00553061 -0.00101258 3.37991e-05
35 2 8.0459 4.14015 10.7093 0.0201524 0.0144693 -0.0183171
36 2 7.06952 4.95555 11.4855 -0.00468831 0.00888428 0.0157857
37 1 8.27182 12.1765 10.0523 -0.000297334 -0.00340309 0.00169688
38 2 8.87807 12.6474 9.432 0.00192701 -0.013833 -0.0214369
39 2 8.92035 11.5983 10.5431 0.00476463 0.000734729 -0.0304195
40 1 10.8767 4.04686 4.58724 0.00682536 0.000948073 0.00601986
41 2 11.7284 4.54628 4.66648 -0.00818152 -0.0047756 -0.0233856
42 2 10.1698 4.7155 4.49976 -0.0310393 -0.0166739 0.00800201
43 1 3.6124 5.01763 5.09604 -0.00361171 0.00205638 -0.00045682
44 2 3.57254 7.49034 4.09545 -0.024394 -0.0226708 0.0206083
45 2 4.89969 4.3375 3.49296 -0.0254692 -0.000586888 0.0338661
46 1 9.87046 13.405 8.0866 -0.00478327 -0.00176927 -0.000710955
47 2 9.28592 13.2248 7.3091 0.0191751 -0.000887927 -0.00136971
48 2 10.6347 12.8867 7.77276 0.0170324 -0.000238578 -0.000974673
49 1 10.8199 6.09402 8.56216 0.00401479 -0.00335757 -0.000706881
50 2 10.5766 5.11627 8.29585 -0.00566901 0.00205056 0.0150517
51 2 10.5189 6.33665 9.46255 0.00619611 0.0222944 -0.00342376
52 1 9.35499 9.4877 4.21012 0.00106952 0.0046603 -0.000704834
53 2 10.0754 9.9634 4.75266 -0.0256365 0.0147547 -0.00205458
54 2 8.53479 9.49349 4.76759 -0.00178491 -0.0167031 -0.00252944
55 1 4.44915 11.2823 3.85248 0.00409293 -0.00397332 0.00194011
56 2 5.18633 10.6558 3.75694 0.000264189 -0.00248618 0.0203343
57 2 3.79135 11.047 3.18955 -0.00680281 0.00669866 0.0135334
58 1 6.88823 9.85458 9.32461 0.00386707 -0.000430365 0.00508104
59 2 5.59249 10.5879 6.47448 0.00255691 -0.00318953 -0.000163099
60 2 7.09021 10.8103 9.54165 0.0145137 -0.0189939 -0.00542192
61 1 6.30905 4.74404 8.1317 0.00265721 -0.000424111 0.00120437
62 2 6.82027 4.77372 8.93035 0.00263294 -0.00401046 0.0214251
63 2 5.4038 4.59049 8.39034 0.00295427 -0.00696314 -0.00773125
64 1 4.88669 11.1506 6.72267 -0.0029717 -0.00386995 -0.00304464
65 2 4.62252 11.4163 5.85008 0.0311885 -0.0327764 -0.0125461
66 2 3.81531 12.6858 7.41053 -0.0121723 0.0213693 0.0130802
67 1 11.9551 10.5233 7.80609 0.00216932 0.00566608 0.000296303
68 2 12.0721 10.7836 6.86091 -0.0105547 -0.00257041 -0.0322727
69 2 3.02108 10.2669 8.11709 0.020793 -0.0330142 0.0227945
70 1 8.25989 5.11955 4.67553 0.00132026 0.000243556 -0.00411632
71 2 7.97735 4.15606 4.94204 -0.0274315 -0.0330208 0.000903987
72 2 7.72172 5.65235 5.23619 0.00199203 -0.00736271 -0.0145607
73 1 10.3335 8.44143 7.19608 0.000487798 -0.00381061 -0.00203182
74 2 10.5935 7.53563 7.59546 -0.00783269 -0.00339126 0.012263
75 2 10.8056 9.17905 7.72606 0.0198418 0.0135635 -0.0287291
76 1 3.6289 13.7228 10.3757 0.000212966 0.00156767 -0.000122227
77 2 12.653 13.5634 10.9431 -0.0171826 -0.011758 0.00152245
78 2 3.84074 5.53006 10.4724 0.035009 -0.018746 -0.0322361
79 1 4.22167 9.06263 9.54431 -0.0024971 -0.00531482 0.0031866
80 2 3.70328 9.50332 10.3418 0.00435812 0.0238691 -0.00712521