ITEM: TIMESTEP
0
ITEM: NUMBER OF ATOMS
96
ITEM: BOX BOUNDS pp pp pp
2.9236100000000000e+00 1.2773600000000000e+01
4.0306300000000004e+00 1.3880599999999999e+01
2.1372399999999998e+00 1.1987200000000000e+01
ITEM: ATOMS id type x y z vx vy vz
1 1 7.33626 13.2136 3.423 -1.9593e-05 -0.00274698 -0.000257341
2 2 6.58524 12.5974 3.50021 -0.0245244 -0.00967936 -0.000230211
3 2 9.80394 13.0756 11.3376 0.0236347 -0.00253795 0.0154109
4 1 12.4046 9.8574 2.62253 0.00178507 -0.00465178 0.00343795
5 2 11.5088 10.1298 2.35961 0.0177833 -0.00752035 0.00334232
6 2 12.2935 9.09335 3.2508 0.0218532 0.00846272 -0.0090078
7 1 12.1937 7.73785 4.24846 -0.00049984 -0.00313462 -0.00131858
8 2 11.2695 7.49674 4.27565 -0.0137593 -0.026621 -0.039244
9 2 7.96673 8.7485 7.10839 -0.0030505 0.00372615 -0.0262641
10 1 7.05389 8.57763 7.44973 3.61803e-06 0.00269735 -0.00587641
11 2 6.60601 7.94849 6.8504 -0.0132606 0.0196264 -0.00854505
12 2 6.63841 9.72549 9.02236 -0.00429651 0.00559972 -0.00539149
13 1 6.76603 8.76937 2.65928 -0.003004 -0.00371286 -0.00155563
14 2 6.48832 9.16308 11.7184 -0.00604344 -0.00629629 0.0103934
15 2 7.03836 7.866 2.33256 0.0216941 0.0162083 -0.0365417
16 1 9.57323 7.35782 11.091 0.00193576 -0.00257779 0.000902776
17 2 9.93217 7.24292 11.9806 0.0260999 0.0268908 -0.0179094
18 2 8.7676 6.78481 10.9949 0.00886797 0.0128467 0.00113706
19 1 4.71123 5.89274 10.7674 -0.00716411 -0.0063382 -0.00355899
20 2 4.14537 5.66609 11.5369 -0.0116399 -0.0185107 -0.00529536
21 2 11.0737 8.25984 10.0073 0.0166327 0.00718143 0.022275
22 1 9.84848 10.2969 11.8712 -0.00143863 -0.00696447 -0.00133761
23 2 9.49804 10.2606 3.00317 0.0130791 -0.00521305 -0.0233671
24 2 9.68802 9.36339 11.567 0.00347648 -0.0219017 -0.00936222
25 1 3.5209 8.54343 6.4246 0.00071504 -0.000500411 0.00150194
26 2 3.76024 9.40021 6.03951 0.0249189 0.0194583 0.00865419
27 2 3.26482 6.18376 3.59174 -0.011451 0.00629594 -0.0115095
28 1 9.57927 7.11884 4.20269 0.000887911 -0.00417435 0.00148137
29 2 9.54844 6.43867 4.8217 -0.0343065 -0.0157509 0.0031213
30 2 9.10778 7.9156 4.58343 -0.00409075 -0.00042205 -0.0171795
31 1 4.05034 11.0918 5.71273 0.00463482 0.00280571 -0.00236824
32 2 3.3949 11.9413 5.63561 -0.00310076 -9.52795e-05 0.0107311
33 2 4.67473 11.1877 4.96651 0.0125549 0.0405967 -0.00646356
34 1 7.69773 5.03678 8.89177 0.00253893 0.00337738 -0.00307053
35 2 7.81993 4.1343 9.2841 0.00219865 -0.0169994 -0.00598519
36 2 7.43849 5.60551 9.63412 0.0215277 0.0263765 0.00790776
37 1 8.10226 11.8981 10.4059 0.00318881 0.0058401 -0.0125277
38 2 9.23255 12.0749 9.06003 0.0157306 0.0132086 -0.0175209
39 2 8.62224 11.3623 11.029 -0.00678844 0.0209131 0.0167243
40 1 3.08809 13.3714 5.24531 0.000468295 -0.00604711 -0.00432528
41 2 3.52133 4.64506 3.99156 -0.0271356 0.0253521 -0.00117936
42 2 12.0287 13.4017 5.09399 -0.00393585 0.018027 -0.00082538
43 1 3.91493 5.41252 3.54376 0.00073593 -0.00201104 0.00193889
44 2 12.4768 7.90326 5.23881 -0.0116778 -0.00869624 -0.0257787
45 2 8.10716 12.7414 3.65936 0.0186225 0.0111804 -0.0150009
46 1 9.84376 12.336 8.29067 -0.00183759 0.00899525 -0.00507866
47 2 8.54323 12.7192 7.35505 0.0102002 0.000409739 0.020122
48 2 10.1875 11.5177 7.89807 0.0124671 -0.0256309 0.00659412
49 1 10.2368 6.69844 8.11518 0.00359136 0.0045006 0.00306523
50 2 9.54776 5.99733 7.9022 -0.0185763 0.00602384 0.0186974
51 2 10.212 6.75384 9.10513 -0.00150466 0.0169956 -0.0073271
52 1 9.03318 10.989 4.49363 0.00120919 0.00342878 0.00200786
53 2 9.08187 10.2326 5.09519 -0.00526261 0.0119507 0.0144234
54 2 8.483 11.6102 5.07705 0.0191623 0.024637 0.0256972
55 1 5.08901 10.9898 3.30188 0.00212544 -0.00197637 0.000264354
56 2 5.73398 10.2851 3.32735 -0.0134086 0.0114354 0.02191
57 2 4.27036 10.614 2.86649 -0.0102406 -0.000602599 -0.00841451
58 1 6.17394 10.0693 9.82154 0.00471394 -0.00515041 0.00729043
59 2 4.56981 13.7182 7.86114 0.0220916 -0.0288343 -0.0155023
60 2 7.40822 11.2745 10.0949 0.0109262 0.0380894 -0.0397441
61 1 7.89502 5.5188 6.29977 -0.00047057 -0.000633918 0.000695881
62 2 7.90171 5.69856 7.30411 -0.0111979 -0.0042426 0.00455497
63 2 6.85791 5.5501 6.11978 -0.0155196 -0.0114877 -0.0208838
64 1 5.32197 12.3323 7.92447 -0.00162114 0.000671061 -0.00461179
65 2 4.96512 11.8818 7.06992 -0.0205391 0.014499 -0.0226065
66 2 3.46767 4.16873 6.43378 -0.00692152 0.0101395 0.00106071
67 1 11.3827 9.99778 7.68678 0.000503829 -0.00327041 0.00802462
68 2 12.0572 9.81059 7.05125 0.0100009 -0.00276344 0.0143116
69 2 11.6881 9.553 8.56427 -0.011777 -0.0211441 0.00939979
70 1 10.454 4.16221 4.79514 -0.00392748 -0.00287674 0.000718893
71 2 10.1942 13.8393 3.85983 -0.0146803 0.00677044 -0.00103825
72 2 9.79629 4.74446 5.20621 -0.00204133 0.0128339 0.0208584
73 1 9.49044 8.74721 6.30364 -0.00120373 0.00743698 0.00333458
74 2 9.73224 7.88553 6.86405 -0.0119866 -8.82225e-05 0.0127194
75 2 9.99819 9.52402 6.78378 -0.00316565 -0.00428358 0.0192439
76 1 12.2905 5.05689 9.75336 0.00388795 0.00402184 0.0068993
77 2 11.8769 5.91546 9.51892 -0.0148238 -0.00966956 -0.0285391
78 2 4.33606 5.47205 10.04 0.00899882 -0.00297042 -0.00603827
79 1 11.9683 8.62758 9.96233 -0.00482601 -0.00160602 0.00314453
80 2 12.1682 8.97019 10.8105 0.0144204 -0.00932191 0.00936317
81 2 5.55286 10.6112 9.3898 -0.00894732 0.0162068 0.011464
82 1 7.36204 5.84637 11.6243 -0.00156105 0.00520022 0.00178631
83 2 7.2959 5.13048 2.42539 -0.00301034 0.0289507 -0.00872025
84 2 6.47137 5.85623 11.1563 -0.000896456 0.00906472 -0.00740948
85 1 10.2097 13.8779 11.6469 0.00625408 -0.00740235 0.00369086
86 2 9.39472 4.6523 11.646 -0.00237294 0.00695029 -0.00799909
87 2 11.6107 4.59103 10.3065 -0.00388707 0.000920532 0.0160397
88 1 7.73011 12.6428 6.73721 7.62786e-05 0.00413775 0.00167758
89 2 6.2348 12.5692 7.71568 0.010797 0.00343621 -0.00212982
90 2 7.6249 13.6001 6.46185 0.0159415 0.00534224 -0.00679875
91 1 5.32405 6.58923 5.83761 -0.00362189 -0.00632538 0.00292362
92 2 4.26372 7.8654 6.26797 -0.0239609 0.000260951 0.0103583
93 2 4.83115 6.13512 6.44813 -0.0105105 0.000200055 -0.00324854
94 1 3.84084 4.66667 7.56522 -0.00470063 -0.000556832 -0.00152946
95 2 3.0461 4.46402 8.26149 -0.0441779 0.0417008 0.000424552
96 2 4.91147 6.43148 4.97182 0.00145838 0.022742 0.0150695
ITEM: TIMESTEP
1
ITEM: NUMBER OF ATOMS
96
ITEM: BOX BOUNDS pp pp pp
2.9236100000000000e+00 1.2773600000000000e+01
4.0306300000000004e+00 1.3880599999999999e+01
2.1372399999999998e+00 1.1987200000000000e+01
ITEM: ATOMS id type x y z vx vy vz
1 1 7.33617 13.2123 3.42285 -0.000381578 -0.00251366 -0.000321281
2 2 6.5738 12.5926 3.49998 -0.0203506 -0.00898905 -0.000726628
3 2 9.81573 13.0742 11.3453 0.0231595 -0.00341841 0.0150199
4 1 12.4056 9.85508 2.62424 0.00218781 -0.00460585 0.00336566
5 2 11.5165 10.1268 2.36097 0.0126982 -0.00451199 0.00202813
6 2 12.3046 9.09721 3.24676 0.02249 0.00646145 -0.00671352
7 1 12.1936 7.73626 4.24781 -6.52021e-05 -0.0032549 -0.0013445
8 2 11.2608 7.48308 4.25604 -0.0203617 -0.0277915 -0.0389317
9 2 7.96516 8.75008 7.09476 -0.00329547 0.00264399 -0.0281703
10 1 7.05385 8.57898 7.4468 -0.000148597 0.00270044 -0.00582866
11 2 6.59996 7.95868 6.84639 -0.011078 0.0209708 -0.00755618
12 2 6.63612 9.72773 9.02023 -0.00499503 0.00342832 -0.00296886
13 1 6.76458 8.76739 2.65853 -0.0028037 -0.00423426 -0.00142817
14 2 6.48483 9.16076 11.7223 -0.00811745 -0.00259877 0.00497202
15 2 7.04889 7.87521 2.31508 0.0204868 0.0204282 -0.033155
16 1 9.57422 7.35655 11.0914 0.00206255 -0.00244351 0.000599804
17 2 9.94438 7.25594 11.9717 0.022734 0.0249279 -0.0171382
18 2 8.77282 6.79166 10.9963 0.0115708 0.0141193 0.00454665
19 1 4.70775 5.88964 10.7657 -0.00676998 -0.006046 -0.00312971
20 2 4.13979 5.65676 11.5344 -0.0105919 -0.0187651 -0.00472377
21 2 11.0818 8.26323 10.0189 0.0147993 0.0060084 0.0241765
22 1 9.84769 10.2933 11.8706 -0.00169505 -0.00734492 -0.00107111
23 2 9.50514 10.2587 2.98981 0.0150097 -0.00268209 -0.0292333
24 2 9.68987 9.35312 11.5623 0.0039675 -0.0187284 -0.00934471
25 1 3.52124 8.54307 6.4254 0.000630037 -0.000874703 0.00170028
26 2 3.77353 9.41068 6.04324 0.0280299 0.0216042 0.00660865
27 2 3.25974 6.18584 3.58634 -0.00848098 0.00194862 -0.0101933
28 1 9.57971 7.11687 4.2033 0.000862094 -0.00373724 0.000993205
29 2 9.53059 6.43007 4.82472 -0.0371323 -0.0181458 0.00853269
30 2 9.10645 7.91405 4.57521 -0.00128904 -0.00569574 -0.0155962
31 1 4.05267 11.0932 5.71164 0.00471152 0.00280775 -0.00201063
32 2 3.39332 11.9411 5.6408 -0.0033428 -0.000776927 0.010045
33 2 4.68121 11.2079 4.96231 0.0130743 0.0399367 -0.00999768
34 1 7.69901 5.03843 8.89028 0.00257388 0.00320041 -0.00284007
35 2 7.82087 4.12688 9.2809 0.0014681 -0.0120769 -0.00690264
36 2 7.44947 5.61807 9.63792 0.0225747 0.0232981 0.0068684
37 1 8.1039 11.9011 10.3996 0.00338356 0.00600844 -0.0126769
38 2 9.24092 12.0815 9.05101 0.0173254 0.0129491 -0.0179444
39 2 8.61958 11.3727 11.0379 -0.00435641 0.0203649 0.0185997
40 1 3.08856 13.3685 5.24333 0.00138069 -0.00547033 -0.00356981
41 2 3.50727 4.65704 3.99173 -0.0290533 0.0221695 0.00194602
42 2 12.0254 13.4107 5.0941 -0.00911508 0.0180667 0.00129757
43 1 3.91528 5.41165 3.54468 0.000642636 -0.00143712 0.0017191
44 2 12.4708 7.89915 5.22534 -0.0122608 -0.00769149 -0.027445
45 2 8.11677 12.746 3.65208 0.0193399 0.00736494 -0.0141518
46 1 9.8428 12.3405 8.28817 -0.00194952 0.0089972 -0.00496715
47 2 8.54837 12.7185 7.36512 0.0099232 -0.00296937 0.0197832
48 2 10.1939 11.5047 7.90169 0.0127684 -0.0252865 0.00815118
49 1 10.2385 6.70062 8.11674 0.00326386 0.0042101 0.00316201
50 2 9.53974 6.00165 7.91236 -0.0134373 0.011364 0.0217847
51 2 10.2108 6.76233 9.10007 -0.00316069 0.0170641 -0.0124336
52 1 9.03369 10.9908 4.49475 0.000823128 0.0036968 0.00251939
53 2 9.07958 10.2383 5.10199 -0.00384195 0.01074 0.0126226
54 2 8.49352 11.6219 5.08886 0.0231172 0.0220951 0.0211281
55 1 5.09003 10.9889 3.302 0.00191885 -0.00175342 0.000202186
56 2 5.7275 10.2901 3.33804 -0.0120844 0.00779026 0.0208048
57 2 4.26588 10.6139 2.86284 -0.00729347 8.7499e-05 -0.00597574
58 1 6.17638 10.0667 9.82515 0.0050018 -0.00529521 0.00711414
59 2 4.58051 13.7039 7.85288 0.019854 -0.0280395 -0.0172981
60 2 7.41276 11.2934 10.0747 0.00720314 0.0369505 -0.0406967
61 1 7.89458 5.51847 6.30019 -0.00130838 -0.000712244 0.000956689
62 2 7.89639 5.69605 7.30478 -0.0101066 -0.00576502 -0.00179837
63 2 6.85332 5.54469 6.10919 -0.00249586 -0.0100904 -0.0212162
64 1 5.32103 12.3326 7.92213 -0.00212006 0.000591757 -0.00477602
65 2 4.95486 11.8893 7.0594 -0.0201967 0.0156344 -0.0192274
66 2 3.46277 4.17243 6.43254 -0.0124895 0.00473258 -0.00576603
67 1 11.3829 9.99618 7.69087 0.000234176 -0.00311459 0.00833625
68 2 12.0631 9.8089 7.05795 0.0132701 -0.00397699 0.0125457
69 2 11.682 9.54263 8.56818 -0.0125664 -0.0202482 0.00618475
70 1 10.452 4.16079 4.79547 -0.00424785 -0.00277897 0.000629288
71 2 10.1868 13.8433 3.86002 -0.014856 0.00918263 0.00186538
72 2 9.79512 4.75038 5.21597 -0.00224761 0.0104865 0.0179382
73 1 9.4899 8.7509 6.30545 -0.000968375 0.00728553 0.00392904
74 2 9.72613 7.88769 6.86942 -0.0124688 0.00867599 0.00863721
75 2 9.99615 9.51985 6.79286 -0.00489193 -0.012099 0.0170472
76 1 12.2924 5.05888 9.75681 0.00364992 0.00394919 0.0068959
77 2 11.8696 5.90991 9.50474 -0.0142725 -0.012598 -0.0280748
78 2 4.33937 5.46961 10.0352 0.00422767 -0.00679762 -0.0131222
79 1 11.9659 8.62672 9.96378 -0.00480021 -0.00179685 0.002665
80 2 12.1758 8.96635 10.8168 0.0158381 -0.00614626 0.0154507
81 2 5.54714 10.6204 9.3953 -0.0131441 0.0200757 0.0110333
82 1 7.36121 5.84897 11.6252 -0.00173835 0.00523122 0.00160732
83 2 7.29435 5.14473 2.4211 -0.00328125 0.0273276 -0.00781852
84 2 6.47129 5.86073 11.1533 0.000587502 0.00890769 -0.00449192
85 1 10.2127 13.8743 11.6487 0.00572854 -0.00692901 0.00371934
86 2 9.3956 4.65428 11.642 0.00607317 0.00070731 -0.0080031
87 2 11.6091 4.592 10.3141 -0.00245185 0.00308765 0.0142184
88 1 7.73016 12.6449 6.73804 0.000146783 0.00444968 0.00166801
89 2 6.24173 12.5712 7.71413 0.0164527 0.00455497 -0.00416021
90 2 7.63265 13.6027 6.45808 0.015132 0.00488004 -0.0081709
91 1 5.32237 6.5862 5.83899 -0.00308125 -0.00580515 0.00263267
92 2 4.25172 7.86656 6.27314 -0.0236628 0.00410969 0.0102734
93 2 4.82426 6.13343 6.44807 -0.0170687 -0.00690118 0.00297238
94 1 3.83847 4.66627 7.56447 -0.00480645 -0.00105424 -0.00148329
95 2 3.02479 4.48563 8.2608 -0.0400093 0.0443574 -0.0034192
96 2 4.91187 6.44223 4.97901 -0.000107438 0.0201598 0.0131395
ITEM: TIMESTEP
2
ITEM: NUMBER OF ATOMS
96
ITEM: BOX BOUNDS pp pp pp
2.9236100000000000e+00 1.2773600000000000e+01
4.0306300000000004e+00 1.3880599999999999e+01
2.1372399999999998e+00 1.1987200000000000e+01
ITEM: ATOMS id type x y z vx vy vz
1 1 7.33588 13.2111 3.42268 -0.000776008 -0.00233846 -0.000371792
2 2 6.56489 12.5884 3.49948 -0.0146135 -0.00755774 -0.00125755
3 2 9.8271 13.0722 11.3526 0.0220132 -0.00519365 0.0142183
4 1 12.4068 9.85279 2.6259 0.00265902 -0.00449828 0.00324216
5 2 11.5215 10.1253 2.36164 0.00690211 -0.00146383 0.000669776
6 2 12.316 9.09981 3.24409 0.0227564 0.0035683 -0.00366648
7 1 12.1936 7.7346 4.24712 0.000267055 -0.00341996 -0.00147543
8 2 11.2491 7.46895 4.23672 -0.0252916 -0.0284698 -0.0380829
9 2 7.96343 8.75114 7.08022 -0.00371861 0.00166392 -0.0298415
10 1 7.05374 8.58033 7.4439 -0.000277059 0.00272177 -0.00577567
11 2 6.59493 7.96946 6.84284 -0.00922354 0.0219628 -0.0067653
12 2 6.63341 9.72892 9.01939 -0.00591696 0.00139788 -0.000318044
13 1 6.76323 8.76514 2.65785 -0.00259384 -0.00475459 -0.00130599
14 2 6.4802 9.16048 11.7234 -0.0104782 0.00167149 -0.000594342
15 2 7.05885 7.88643 2.29941 0.0194172 0.0240882 -0.0294234
16 1 9.57529 7.35538 11.0916 0.00224984 -0.00222743 0.000223291
17 2 9.9549 7.26785 11.9635 0.0194385 0.0225404 -0.0153611
18 2 8.77917 6.79893 10.9994 0.0132466 0.0144925 0.00816473
19 1 4.70446 5.88669 10.7643 -0.00639411 -0.00576797 -0.00269783
20 2 4.13478 5.64732 11.5322 -0.0093498 -0.0189498 -0.00453009
21 2 11.0885 8.26585 10.0315 0.0114794 0.00418314 0.0259982
22 1 9.84678 10.2896 11.8701 -0.00191338 -0.00774804 -0.000952097
23 2 9.51305 10.2579 2.97394 0.0162115 -0.000389944 -0.0331626
24 2 9.69199 9.34466 11.5577 0.00448448 -0.0148446 -0.00900248
25 1 3.52153 8.54256 6.4263 0.000515279 -0.00108696 0.00186526
26 2 3.78827 9.42181 6.04612 0.0306126 0.0221013 0.00526587
27 2 3.25634 6.18571 3.58155 -0.00489032 -0.00238594 -0.00907885
28 1 9.58013 7.1151 4.20368 0.000848584 -0.00339053 0.000554658
29 2 9.51131 6.42052 4.83023 -0.0399254 -0.0193811 0.0129369
30 2 9.10649 7.9099 4.56783 0.00134256 -0.0106432 -0.0138126
31 1 4.05505 11.0946 5.71072 0.00484692 0.00282817 -0.00170245
32 2 3.39156 11.9405 5.64565 -0.00379685 -0.00155238 0.00943763
33 2 4.6878 11.2276 4.95651 0.0129143 0.0388945 -0.0127819
34 1 7.7003 5.03998 8.88893 0.00260084 0.00302312 -0.00254733
35 2 7.8214 4.12222 9.2772 0.000588735 -0.00613296 -0.00793423
36 2 7.46106 5.62881 9.64099 0.0239153 0.0192103 0.00507675
37 1 8.10564 11.9041 10.3932 0.00363338 0.00623553 -0.0127797
38 2 9.24988 12.0878 9.04209 0.0180461 0.0124807 -0.0171075
39 2 8.61788 11.3827 11.0476 -0.00299411 0.0196216 0.0195579
40 1 3.08947 13.3659 5.24174 0.00223185 -0.00486163 -0.00279447
41 2 3.49228 4.66723 3.99351 -0.0307305 0.0183341 0.0051226
42 2 12.0196 13.4198 5.09529 -0.0134341 0.0179343 0.00349394
43 1 3.91557 5.41108 3.54548 0.00049976 -0.000820793 0.00149613
44 2 12.4645 7.89557 5.21137 -0.012973 -0.00660763 -0.0277937
45 2 8.1265 12.7488 3.64521 0.0190385 0.00360782 -0.0134301
46 1 9.84181 12.345 8.2857 -0.00194805 0.00890099 -0.00496631
47 2 8.55315 12.7162 7.37483 0.00882276 -0.00619805 0.0186919
48 2 10.2003 11.4924 7.90622 0.0124972 -0.023179 0.0101582
49 1 10.2401 6.70265 8.11834 0.00291885 0.00389967 0.00320829
50 2 9.53432 6.00869 7.92398 -0.00824337 0.0167268 0.0245478
51 2 10.2088 6.7709 9.0927 -0.00464678 0.0173421 -0.0164198
52 1 9.034 10.9927 4.49615 0.000407945 0.00400249 0.00308989
53 2 9.07803 10.2433 5.10781 -0.00233353 0.00952492 0.0105204
54 2 8.50612 11.6323 5.09818 0.0273627 0.0191365 0.0159036
55 1 5.09093 10.988 3.30208 0.00163072 -0.00146579 0.000131302
56 2 5.7219 10.2929 3.34815 -0.0100201 0.00310431 0.0196593
57 2 4.26307 10.6141 2.86051 -0.00375386 0.000885737 -0.00321723
58 1 6.17894 10.064 9.82865 0.00519868 -0.00534881 0.00685133
59 2 4.58966 13.6902 7.84384 0.0159687 -0.0265555 -0.0185709
60 2 7.41542 11.3115 10.0542 0.00351646 0.0348513 -0.0412132
61 1 7.89371 5.51809 6.30073 -0.00214889 -0.000807711 0.00116372
62 2 7.8916 5.69279 7.30231 -0.00910889 -0.00717152 -0.00777617
63 2 6.85541 5.54001 6.09856 0.0107159 -0.00852443 -0.0211192
64 1 5.31985 12.3329 7.91969 -0.00257553 0.000533836 -0.00497619
65 2 4.94492 11.8974 7.05069 -0.0192615 0.0168855 -0.0154136
66 2 3.45518 4.17346 6.42801 -0.0177016 -0.000573877 -0.0121571
67 1 11.3829 9.99467 7.69512 -3.13011e-06 -0.00296794 0.00863043
68 2 12.0705 9.80661 7.0638 0.016132 -0.00511193 0.0110297
69 2 11.6755 9.53275 8.57045 -0.0133786 -0.0191757 0.00292632
70 1 10.4498 4.15943 4.79577 -0.00461824 -0.00264131 0.000565996
71 2 10.1793 13.8485 3.8617 -0.0149398 0.0115627 0.00479182
72 2 9.79404 4.75495 5.22415 -0.00176481 0.00751234 0.0145888
73 1 9.48947 8.7545 6.30757 -0.000752142 0.00709832 0.00451525
74 2 9.71977 7.89421 6.87269 -0.0129369 0.0170254 0.00443703
75 2 9.9933 9.51192 6.80083 -0.00633414 -0.0189783 0.014928
76 1 12.2941 5.06084 9.76026 0.00338154 0.00387044 0.00688819
77 2 11.8626 5.90286 9.49085 -0.0136725 -0.0155533 -0.0274382
78 2 4.34029 5.46525 10.0269 -0.000399246 -0.0104466 -0.0197897
79 1 11.9635 8.62578 9.965 -0.00467329 -0.00192993 0.00225912
80 2 12.184 8.96404 10.826 0.0172174 -0.00331069 0.0205098
81 2 5.53972 10.6313 9.40083 -0.0156443 0.0224313 0.0115807
82 1 7.3603 5.8516 11.6259 -0.00190492 0.00534499 0.00134272
83 2 7.29262 5.15781 2.41757 -0.00372652 0.0243492 -0.00570005
84 2 6.47196 5.86514 11.1518 0.00199853 0.00868929 -0.00154291
85 1 10.2154 13.871 11.6506 0.00524314 -0.00637842 0.00377209
86 2 9.40079 4.65301 11.638 0.0145609 -0.00583272 -0.00800374
87 2 11.6082 4.59412 10.3207 -0.000666679 0.00541339 0.0120548
88 1 7.73026 12.6472 6.73888 0.000237849 0.00476334 0.00169332
89 2 6.25125 12.5738 7.71152 0.0209594 0.00525667 -0.00638244
90 2 7.64003 13.605 6.45368 0.0144665 0.0042842 -0.00932221
91 1 5.32097 6.58342 5.84024 -0.00252009 -0.00530909 0.00242926
92 2 4.24006 7.86951 6.27824 -0.0225693 0.00730469 0.0100706
93 2 4.81408 6.12822 6.4511 -0.0232871 -0.0135953 0.00868033
94 1 3.83603 4.66562 7.56374 -0.00494939 -0.00157739 -0.00147323
95 2 3.00609 4.50838 8.25807 -0.0337887 0.0461742 -0.00768069
96 2 4.91136 6.45164 4.98496 -0.00211329 0.0174029 0.0102964
ITEM: TIMESTEP
3
ITEM: NUMBER OF ATOMS
96
ITEM: BOX BOUNDS pp pp pp
2.9236100000000000e+00 1.2773600000000000e+01
4.0306300000000004e+00 1.3880599999999999e+01
2.1372399999999998e+00 1.1987200000000000e+01
ITEM: ATOMS id type x y z vx vy vz
1 1 7.33539 13.21 3.42248 -0.00117187 -0.00221552 -0.000407097
2 2 6.55919 12.5851 3.49872 -0.00774524 -0.00560922 -0.00181386
3 2 9.83774 13.069 11.3595 0.0202776 -0.00773223 0.0130654
4 1 12.4082 9.85058 2.62748 0.00316482 -0.00433728 0.00306649
5 2 11.5234 10.1253 2.36164 0.000919759 0.00140273 -0.000522024
6 2 12.3274 9.10077 3.2431 0.0226335 4.04968e-05 -8.87462e-05
7 1 12.1938 7.73284 4.24633 0.000472773 -0.00363498 -0.00171789
8 2 11.2355 7.45461 4.21796 -0.0282329 -0.0285294 -0.036667
9 2 7.96144 8.75175 7.06492 -0.00438335 0.00081548 -0.031194
10 1 7.05357 8.5817 7.44103 -0.000374453 0.00276573 -0.00571583
11 2 6.59073 7.98064 6.83963 -0.00783079 0.0224978 -0.0062467
12 2 6.6302 9.72912 9.01991 -0.00698193 -0.000542699 0.00237664
13 1 6.76198 8.76263 2.65723 -0.00239493 -0.0052339 -0.00121425
14 2 6.47435 9.16243 11.7217 -0.0128923 0.00612836 -0.00572571
15 2 7.06831 7.8993 2.28566 0.0185714 0.0269414 -0.0255431
16 1 9.57647 7.35433 11.0916 0.00250388 -0.00193275 -0.000213121
17 2 9.96382 7.27848 11.9563 0.0163086 0.0198518 -0.0126756
18 2 8.78607 6.80615 11.0045 0.013717 0.0139065 0.01186
19 1 4.70135 5.88388 10.763 -0.00605962 -0.00553081 -0.00230756
20 2 4.13044 5.63781 11.5299 -0.00790031 -0.019057 -0.0047722
21 2 11.0932 8.26741 10.0449 0.00702841 0.00185421 0.0277429
22 1 9.84578 10.2856 11.8697 -0.00207784 -0.00814931 -0.00100306
23 2 9.52135 10.2583 2.95665 0.0165407 0.00160706 -0.0347326
24 2 9.69436 9.33828 11.5533 0.00495987 -0.0106057 -0.00842344
25 1 3.52176 8.54198 6.42727 0.000373508 -0.00112134 0.00199459
26 2 3.80415 9.43278 6.04851 0.0325506 0.0209354 0.00465239
27 2 3.25485 6.18345 3.57726 -0.00092677 -0.00638434 -0.00817575
28 1 9.58055 7.11348 4.20386 0.00084873 -0.00316854 0.000179512
29 2 9.49066 6.41069 4.83766 -0.0425326 -0.0192523 0.0160624
30 2 9.10779 7.90341 4.5614 0.0036435 -0.0149251 -0.0118145
31 1 4.05752 11.096 5.70994 0.00504353 0.00287041 -0.00145335
32 2 3.38952 11.9395 5.65023 -0.00438532 -0.00255211 0.00893135
33 2 4.69413 11.2468 4.94953 0.011958 0.0374182 -0.0147034
34 1 7.70161 5.04145 8.88774 0.00262205 0.00285507 -0.0022122
35 2 7.82146 4.12074 9.27297 -0.000362593 0.000387132 -0.00895085
36 2 7.47339 5.63728 9.643 0.025421 0.0143811 0.00276876
37 1 8.10753 11.9073 10.3868 0.00392713 0.00649602 -0.0128349
38 2 9.25896 12.0939 9.03391 0.0178461 0.0118244 -0.014951
39 2 8.61658 11.3923 11.0575 -0.00282863 0.0188161 0.0193848
40 1 3.09079 13.3637 5.24054 0.00299948 -0.00421416 -0.00200273
41 2 3.47653 4.67538 3.99686 -0.0319595 0.0141703 0.00816278
42 2 12.0119 13.4287 5.0976 -0.0165424 0.017602 0.00582219
43 1 3.91578 5.41083 3.54617 0.000310666 -0.000203443 0.00128405
44 2 12.4579 7.89255 5.19755 -0.0137805 -0.00543768 -0.0267807
45 2 8.13581 12.7496 3.63865 0.0176558 6.62831e-05 -0.0128793
46 1 9.84085 12.3494 8.28321 -0.00183347 0.00871845 -0.00506474
47 2 8.55719 12.7124 7.38381 0.00697628 -0.00915698 0.0168898
48 2 10.2064 11.4816 7.91185 0.0117606 -0.0195438 0.0124369
49 1 10.2414 6.70452 8.11995 0.00258054 0.00358643 0.00319541
50 2 9.5315 6.01838 7.9369 -0.00327989 0.0217479 0.0268674
51 2 10.2062 6.77967 9.08365 -0.00592793 0.0178802 -0.0189382
52 1 9.0341 10.9948 4.49784 -1.62383e-05 0.00433057 0.00369585
53 2 9.07725 10.2478 5.11251 -0.000790979 0.00833319 0.00818846
54 2 8.52088 11.6411 5.10476 0.0316323 0.0159889 0.0103448
55 1 5.09166 10.9874 3.30213 0.00129494 -0.00112865 6.04535e-05
56 2 5.71748 10.2932 3.3577 -0.00746409 -0.00229945 0.0185064
57 2 4.26213 10.6147 2.85963 8.13191e-05 0.00170433 -0.000285739
58 1 6.18158 10.0613 9.832 0.00529679 -0.00530023 0.00651558
59 2 4.59648 13.6773 7.83431 0.0108294 -0.0244818 -0.0193644
60 2 7.41628 11.3282 10.0335 0.000128044 0.032031 -0.0411366
61 1 7.89243 5.51766 6.30135 -0.0029335 -0.0009233 0.00129072
62 2 7.88728 5.68888 7.29701 -0.00825975 -0.00835548 -0.0128703
63 2 6.86404 5.53616 6.08807 0.0231404 -0.00677751 -0.0207894
64 1 5.31846 12.3331 7.91715 -0.00295974 0.000503685 -0.00520649
65 2 4.9356 11.9062 7.04398 -0.0177936 0.0181356 -0.0113302
66 2 3.44507 4.17186 6.42038 -0.0225423 -0.00585126 -0.0183011
67 1 11.3829 9.99322 7.6995 -0.000191709 -0.00282967 0.00888748
68 2 12.0792 9.80379 7.06898 0.0183565 -0.00609222 0.00994249
69 2 11.6686 9.52345 8.57111 -0.0141753 -0.0180088 -0.000191986
70 1 10.4473 4.15815 4.79604 -0.00502442 -0.00247146 0.000534979
71 2 10.1719 13.8548 3.86481 -0.0149646 0.0138253 0.00748359
72 2 9.79336 4.75789 5.23056 -0.000786442 0.00410757 0.0109956
73 1 9.48915 8.75799 6.30997 -0.00057329 0.00688185 0.00505756
74 2 9.71319 7.90471 6.87386 -0.0133335 0.0242866 0.000378322
75 2 9.98982 9.50087 6.80778 -0.00727907 -0.0243238 0.0130907
76 1 12.2958 5.06275 9.7637 0.00309671 0.00378815 0.00687455
77 2 11.8559 5.89435 9.47731 -0.0130813 -0.0183691 -0.0266612
78 2 4.33897 5.45917 10.0154 -0.00458118 -0.0135121 -0.0252815
79 1 11.9612 8.62479 9.96603 -0.00445776 -0.00200106 0.00196166
80 2 12.193 8.96304 10.8373 0.0184141 -0.00099099 0.0240658
81 2 5.53149 10.6429 9.40688 -0.0163603 0.0231863 0.0130805
82 1 7.35931 5.85431 11.6265 -0.00205337 0.00552674 0.0010123
83 2 7.29062 5.16908 2.4154 -0.0043057 0.0202288 -0.00253125
84 2 6.47329 5.86942 11.1518 0.00318033 0.00843625 0.00131841
85 1 10.2179 13.8679 11.6525 0.00482757 -0.00578675 0.00384544
86 2 9.41016 4.64845 11.634 0.0225178 -0.0122307 -0.00800642
87 2 11.6084 4.59742 10.3262 0.00131743 0.00776141 0.00970385
88 1 7.7304 12.6497 6.73974 0.000332476 0.00507113 0.00174708
89 2 6.26269 12.5765 7.70775 0.0240432 0.00547658 -0.00874398
90 2 7.64712 13.607 6.44876 0.0140016 0.00352603 -0.0101879
91 1 5.31985 6.58089 5.84142 -0.00199381 -0.00487436 0.00233522
92 2 4.22916 7.87386 6.28321 -0.0205486 0.00958934 0.00973085
93 2 4.80097 6.11984 6.45676 -0.028521 -0.0193197 0.0131451
94 1 3.83352 4.66469 7.563 -0.00512612 -0.00211303 -0.00150229
95 2 2.991 4.5318 8.25312 -0.0259492 0.0471522 -0.0122269
96 2 4.90976 6.45964 4.98931 -0.00437836 0.0145601 0.00693617
ITEM: TIMESTEP
4
ITEM: NUMBER OF ATOMS
96
ITEM: BOX BOUNDS pp pp pp
2.9236100000000000e+00 1.2773600000000000e+01
4.0306300000000004e+00 1.3880599999999999e+01
2.1372399999999998e+00 1.1987200000000000e+01
ITEM: ATOMS id type x y z vx vy vz
1 1 7.33471 13.2089 3.42227 -0.00154064 -0.00213316 -0.000427725
2 2 6.55714 12.5828 3.49767 -0.000230919 -0.00340596 -0.00237916
3 2 9.84738 13.0644 11.3657 0.0180811 -0.0108105 0.0116536
4 1 12.41 9.84846 2.62896 0.00366976 -0.00413512 0.00284106
5 2 11.5224 10.1267 2.36112 -0.00471669 0.0038707 -0.00134386
6 2 12.3386 9.09985 3.244 0.0221064 -0.00379918 0.0037455
7 1 12.1941 7.73096 4.2454 0.000540735 -0.00390181 -0.00207244
8 2 11.2209 7.44042 4.20005 -0.0290516 -0.0278928 -0.0346638
9 2 7.95905 8.75196 7.04903 -0.00533346 0.000123725 -0.0321593
10 1 7.05337 8.5831 7.43819 -0.000435848 0.00283436 -0.00564932
11 2 6.5871 7.99196 6.8366 -0.00700066 0.0225103 -0.00604297
12 2 6.62643 9.72838 9.02177 -0.00810437 -0.00244394 0.0049186
13 1 6.76083 8.7599 2.65664 -0.00222783 -0.00563491 -0.00117613
14 2 6.46731 9.16661 11.7176 -0.0151147 0.0103746 -0.00987179
15 2 7.07742 7.91337 2.27386 0.0180276 0.0287949 -0.0217153
16 1 9.5778 7.35344 11.0914 0.00282685 -0.00156693 -0.000692916
17 2 9.97121 7.2877 11.9508 0.0133907 0.0169817 -0.00925145
18 2 8.79289 6.81284 11.0113 0.0129128 0.0123749 0.0155332
19 1 4.6984 5.88116 10.762 -0.005783 -0.00535547 -0.00199685
20 2 4.12688 5.62827 11.5274 -0.00624752 -0.0190808 -0.00544646
21 2 11.0955 8.2677 10.0592 0.00192224 -0.000779435 0.0293962
22 1 9.84471 10.2814 11.8691 -0.00217595 -0.00852601 -0.0012344
23 2 9.52959 10.2595 2.9392 0.0159149 0.00327864 -0.0336861
24 2 9.69695 9.33406 11.5492 0.00533153 -0.00636537 -0.00769392
25 1 3.5219 8.54143 6.42829 0.000208602 -0.000974533 0.00208793
26 2 3.82082 9.44275 6.05077 0.0337614 0.0182228 0.00473849
27 2 3.25541 6.17932 3.57337 0.00314955 -0.00974572 -0.00749021
28 1 9.58098 7.11193 4.20386 0.000861283 -0.00309452 -0.000126135
29 2 9.46878 6.40127 4.8463 -0.0447928 -0.0177027 0.0177684
30 2 9.11013 7.89498 4.55602 0.00547963 -0.0182277 -0.00959535
31 1 4.0601 11.0975 5.70927 0.00529913 0.00293568 -0.00126822
32 2 3.38717 11.938 5.65459 -0.00502424 -0.00390086 0.00854841
33 2 4.69976 11.2651 4.94181 0.01016 0.035473 -0.0157182
34 1 7.70293 5.04284 8.88672 0.00263962 0.00270504 -0.00185719
35 2 7.82104 4.12261 9.26825 -0.00131053 0.00700894 -0.00981812
36 2 7.48649 5.64319 9.64376 0.0269633 0.00911889 0.000224486
37 1 8.10957 11.9106 10.3804 0.00424914 0.00676678 -0.0128467
38 2 9.26772 12.0997 9.02713 0.0167523 0.0110299 -0.0115156
39 2 8.61505 11.4015 11.067 -0.00387734 0.0180457 0.0179739
40 1 3.09247 13.3617 5.23974 0.00366725 -0.00352095 -0.00119764
41 2 3.46032 4.6814 4.00167 -0.0325328 0.0100096 0.0108797
42 2 12.003 13.4374 5.10111 -0.018215 0.0170413 0.00830523
43 1 3.91588 5.41088 3.54676 7.94363e-05 0.000374351 0.00109708
44 2 12.4508 7.89013 5.18458 -0.0146466 -0.00416927 -0.0244303
45 2 8.14416 12.7488 3.63233 0.0152221 -0.00315841 -0.0125092
46 1 9.83998 12.3537 8.28064 -0.00161279 0.00846423 -0.00524381
47 2 8.56013 12.7071 7.39172 0.00450048 -0.0117513 0.0144636
48 2 10.212 11.4729 7.91866 0.0106914 -0.014691 0.0147979
49 1 10.2426 6.70624 8.12154 0.00227333 0.00328684 0.00311818
50 2 9.53104 6.03044 7.95085 0.00106978 0.0260618 0.0286096
51 2 10.2029 6.78878 9.07376 -0.00697756 0.018729 -0.0197311
52 1 9.03399 10.997 4.49985 -0.000429214 0.00466426 0.00430914
53 2 9.07724 10.2517 5.116 0.000733445 0.00717517 0.00572431
54 2 8.53775 11.6483 5.10852 0.0356636 0.01291 0.00479319
55 1 5.09222 10.9869 3.30214 0.000949859 -0.000761977 -7.84915e-07
56 2 5.71443 10.2906 3.36666 -0.00472595 -0.00802308 0.0173594
57 2 4.26315 10.6158 2.86023 0.00390615 0.00245387 0.00266566
58 1 6.18424 10.0587 9.83517 0.00529783 -0.00514822 0.00612874
59 2 4.60049 13.6657 7.82448 0.00491353 -0.0219603 -0.0197402
60 2 7.41555 11.3435 10.0131 -0.00272374 0.0287498 -0.0403332
61 1 7.89078 5.51716 6.30202 -0.00360554 -0.00106017 0.00131758
62 2 7.88334 5.68444 7.28944 -0.00752339 -0.0092063 -0.016612
63 2 6.87855 5.53323 6.07777 0.0338531 -0.00485484 -0.0204432
64 1 5.31689 12.3334 7.91449 -0.00325226 0.000504882 -0.00545937
65 2 4.92713 11.9156 7.03936 -0.0158813 0.0192689 -0.00715316
66 2 3.43264 4.16761 6.40971 -0.0270043 -0.0111812 -0.024421
67 1 11.3827 9.99184 7.704 -0.000318987 -0.00269778 0.00909102
68 2 12.0888 9.80052 7.07374 0.0197688 -0.00685657 0.00940695
69 2 11.6614 9.51474 8.57026 -0.0149224 -0.0168387 -0.00298636
70 1 10.4447 4.15696 4.7963 -0.00545021 -0.00227962 0.000539963
71 2 10.1644 13.8623 3.86918 -0.014967 0.0158964 0.00969878
72 2 9.79326 4.75905 5.23514 0.000473085 0.000494311 0.00736241
73 1 9.4889 8.76138 6.31263 -0.000446572 0.00664584 0.00552356
74 2 9.70644 7.91849 6.87307 -0.0136177 0.0298399 -0.00329272
75 2 9.98602 9.4876 6.81392 -0.00755108 -0.0276455 0.0117143
76 1 12.2972 5.06463 9.76713 0.00280852 0.00370462 0.0068535
77 2 11.8495 5.88449 9.46418 -0.0125522 -0.020896 -0.0257896
78 2 4.33571 5.45174 10.0016 -0.00808472 -0.0156703 -0.0289923
79 1 11.959 8.62378 9.96696 -0.00417544 -0.00201314 0.00179832
80 2 12.2025 8.96305 10.85 0.0193046 0.000703027 0.0258032