ITEM: TIMESTEP
0
ITEM: NUMBER OF ATOMS
96
ITEM: BOX BOUNDS pp pp pp
2.9236100000000000e+00 1.2773600000000000e+01
4.0306300000000004e+00 1.3880599999999999e+01
2.1372399999999998e+00 1.1987200000000000e+01
ITEM: ATOMS id type x y z vx vy vz
1 1 7.33626 13.2136 3.423 1.9593e-05 0.00274698 0.000257341
2 2 6.58524 12.5974 3.50021 0.0245244 0.00967936 0.000230211
3 2 9.80394 13.0756 11.3376 -0.0236347 0.00253795 -0.0154109
4 1 12.4046 9.8574 2.62253 -0.00178507 0.00465178 -0.00343795
5 2 11.5088 10.1298 2.35961 -0.0177833 0.00752035 -0.00334232
6 2 12.2935 9.09335 3.2508 -0.0218532 -0.00846272 0.0090078
7 1 12.1937 7.73785 4.24846 0.00049984 0.00313462 0.00131858
8 2 11.2695 7.49674 4.27565 0.0137593 0.026621 0.039244
9 2 7.96673 8.7485 7.10839 0.0030505 -0.00372615 0.0262641
10 1 7.05389 8.57763 7.44973 -3.61803e-06 -0.00269735 0.00587641
11 2 6.60601 7.94849 6.8504 0.0132606 -0.0196264 0.00854505
12 2 6.63841 9.72549 9.02236 0.00429651 -0.00559972 0.00539149
13 1 6.76603 8.76937 2.65928 0.003004 0.00371286 0.00155563
14 2 6.48832 9.16308 11.7184 0.00604344 0.00629629 -0.0103934
15 2 7.03836 7.866 2.33256 -0.0216941 -0.0162083 0.0365417
16 1 9.57323 7.35782 11.091 -0.00193576 0.00257779 -0.000902776
17 2 9.93217 7.24292 11.9806 -0.0260999 -0.0268908 0.0179094
18 2 8.7676 6.78481 10.9949 -0.00886797 -0.0128467 -0.00113706
19 1 4.71123 5.89274 10.7674 0.00716411 0.0063382 0.00355899
20 2 4.14537 5.66609 11.5369 0.0116399 0.0185107 0.00529536
21 2 11.0737 8.25984 10.0073 -0.0166327 -0.00718143 -0.022275
22 1 9.84848 10.2969 11.8712 0.00143863 0.00696447 0.00133761
23 2 9.49804 10.2606 3.00317 -0.0130791 0.00521305 0.0233671
24 2 9.68802 9.36339 11.567 -0.00347648 0.0219017 0.00936222
25 1 3.5209 8.54343 6.4246 -0.00071504 0.000500411 -0.00150194
26 2 3.76024 9.40021 6.03951 -0.0249189 -0.0194583 -0.00865419
27 2 3.26482 6.18376 3.59174 0.011451 -0.00629594 0.0115095
28 1 9.57927 7.11884 4.20269 -0.000887911 0.00417435 -0.00148137
29 2 9.54844 6.43867 4.8217 0.0343065 0.0157509 -0.0031213
30 2 9.10778 7.9156 4.58343 0.00409075 0.00042205 0.0171795
31 1 4.05034 11.0918 5.71273 -0.00463482 -0.00280571 0.00236824
32 2 3.3949 11.9413 5.63561 0.00310076 9.52795e-05 -0.0107311
33 2 4.67473 11.1877 4.96651 -0.0125549 -0.0405967 0.00646356
34 1 7.69773 5.03678 8.89177 -0.00253893 -0.00337738 0.00307053
35 2 7.81993 4.1343 9.2841 -0.00219865 0.0169994 0.00598519
36 2 7.43849 5.60551 9.63412 -0.0215277 -0.0263765 -0.00790776
37 1 8.10226 11.8981 10.4059 -0.00318881 -0.0058401 0.0125277
38 2 9.23255 12.0749 9.06003 -0.0157306 -0.0132086 0.0175209
39 2 8.62224 11.3623 11.029 0.00678844 -0.0209131 -0.0167243
40 1 3.08809 13.3714 5.24531 -0.000468295 0.00604711 0.00432528
41 2 3.52133 4.64506 3.99156 0.0271356 -0.0253521 0.00117936
42 2 12.0287 13.4017 5.09399 0.00393585 -0.018027 0.00082538
43 1 3.91493 5.41252 3.54376 -0.00073593 0.00201104 -0.00193889
44 2 12.4768 7.90326 5.23881 0.0116778 0.00869624 0.0257787
45 2 8.10716 12.7414 3.65936 -0.0186225 -0.0111804 0.0150009
46 1 9.84376 12.336 8.29067 0.00183759 -0.00899525 0.00507866
47 2 8.54323 12.7192 7.35505 -0.0102002 -0.000409739 -0.020122
48 2 10.1875 11.5177 7.89807 -0.0124671 0.0256309 -0.00659412
49 1 10.2368 6.69844 8.11518 -0.00359136 -0.0045006 -0.00306523
50 2 9.54776 5.99733 7.9022 0.0185763 -0.00602384 -0.0186974
51 2 10.212 6.75384 9.10513 0.00150466 -0.0169956 0.0073271
52 1 9.03318 10.989 4.49363 -0.00120919 -0.00342878 -0.00200786
53 2 9.08187 10.2326 5.09519 0.00526261 -0.0119507 -0.0144234
54 2 8.483 11.6102 5.07705 -0.0191623 -0.024637 -0.0256972
55 1 5.08901 10.9898 3.30188 -0.00212544 0.00197637 -0.000264354
56 2 5.73398 10.2851 3.32735 0.0134086 -0.0114354 -0.02191
57 2 4.27036 10.614 2.86649 0.0102406 0.000602599 0.00841451
58 1 6.17394 10.0693 9.82154 -0.00471394 0.00515041 -0.00729043
59 2 4.56981 13.7182 7.86114 -0.0220916 0.0288343 0.0155023
60 2 7.40822 11.2745 10.0949 -0.0109262 -0.0380894 0.0397441
61 1 7.89502 5.5188 6.29977 0.00047057 0.000633918 -0.000695881
62 2 7.90171 5.69856 7.30411 0.0111979 0.0042426 -0.00455497
63 2 6.85791 5.5501 6.11978 0.0155196 0.0114877 0.0208838
64 1 5.32197 12.3323 7.92447 0.00162114 -0.000671061 0.00461179
65 2 4.96512 11.8818 7.06992 0.0205391 -0.014499 0.0226065
66 2 3.46767 4.16873 6.43378 0.00692152 -0.0101395 -0.00106071
67 1 11.3827 9.99778 7.68678 -0.000503829 0.00327041 -0.00802462
68 2 12.0572 9.81059 7.05125 -0.0100009 0.00276344 -0.0143116
69 2 11.6881 9.553 8.56427 0.011777 0.0211441 -0.00939979
70 1 10.454 4.16221 4.79514 0.00392748 0.00287674 -0.000718893
71 2 10.1942 13.8393 3.85983 0.0146803 -0.00677044 0.00103825
72 2 9.79629 4.74446 5.20621 0.00204133 -0.0128339 -0.0208584
73 1 9.49044 8.74721 6.30364 0.00120373 -0.00743698 -0.00333458
74 2 9.73224 7.88553 6.86405 0.0119866 8.82225e-05 -0.0127194
75 2 9.99819 9.52402 6.78378 0.00316565 0.00428358 -0.0192439
76 1 12.2905 5.05689 9.75336 -0.00388795 -0.00402184 -0.0068993
77 2 11.8769 5.91546 9.51892 0.0148238 0.00966956 0.0285391
78 2 4.33606 5.47205 10.04 -0.00899882 0.00297042 0.00603827
79 1 11.9683 8.62758 9.96233 0.00482601 0.00160602 -0.00314453
80 2 12.1682 8.97019 10.8105 -0.0144204 0.00932191 -0.00936317
81 2 5.55286 10.6112 9.3898 0.00894732 -0.0162068 -0.011464
82 1 7.36204 5.84637 11.6243 0.00156105 -0.00520022 -0.00178631
83 2 7.2959 5.13048 2.42539 0.00301034 -0.0289507 0.00872025
84 2 6.47137 5.85623 11.1563 0.000896456 -0.00906472 0.00740948
85 1 10.2097 13.8779 11.6469 -0.00625408 0.00740235 -0.00369086
86 2 9.39472 4.6523 11.646 0.00237294 -0.00695029 0.00799909
87 2 11.6107 4.59103 10.3065 0.00388707 -0.000920532 -0.0160397
88 1 7.73011 12.6428 6.73721 -7.62786e-05 -0.00413775 -0.00167758
89 2 6.2348 12.5692 7.71568 -0.010797 -0.00343621 0.00212982
90 2 7.6249 13.6001 6.46185 -0.0159415 -0.00534224 0.00679875
91 1 5.32405 6.58923 5.83761 0.00362189 0.00632538 -0.00292362
92 2 4.26372 7.8654 6.26797 0.0239609 -0.000260951 -0.0103583
93 2 4.83115 6.13512 6.44813 0.0105105 -0.000200055 0.00324854
94 1 3.84084 4.66667 7.56522 0.00470063 0.000556832 0.00152946
95 2 3.0461 4.46402 8.26149 0.0441779 -0.0417008 -0.000424552
96 2 4.91147 6.43148 4.97182 -0.00145838 -0.022742 -0.0150695
ITEM: TIMESTEP
1
ITEM: NUMBER OF ATOMS
96
ITEM: BOX BOUNDS pp pp pp
2.9236100000000000e+00 1.2773600000000000e+01
4.0306300000000004e+00 1.3880599999999999e+01
2.1372399999999998e+00 1.1987200000000000e+01
ITEM: ATOMS id type x y z vx vy vz
1 1 7.33619 13.215 3.42311 -0.000278749 0.00303751 0.000184218
2 2 6.59833 12.6023 3.50021 0.0267925 0.00945877 -0.000231158
3 2 9.79209 13.0768 11.3299 -0.0234096 0.00258799 -0.0153694
4 1 12.4038 9.85973 2.6208 -0.00147928 0.00463226 -0.00346308
5 2 11.4988 10.1343 2.35763 -0.0216928 0.0102845 -0.00441724
6 2 12.2828 9.08874 3.25577 -0.0208706 -0.00940301 0.0104
7 1 12.1941 7.73939 4.24913 0.00100085 0.0030512 0.00138638
8 2 11.2745 7.50971 4.29529 0.00597626 0.0251253 0.0390525
9 2 7.96821 8.74636 7.12102 0.00291245 -0.0048765 0.0242145
10 1 7.05385 8.57628 7.45268 -0.000170783 -0.00270624 0.00592198
11 2 6.61322 7.93905 6.85494 0.0156161 -0.0180637 0.0096352
12 2 6.64042 9.72213 9.02562 0.00386167 -0.00793707 0.00744147
13 1 6.76758 8.7711 2.66009 0.00317672 0.00322907 0.00166509
14 2 6.49087 9.16706 11.7119 0.00445011 0.00908902 -0.0151351
15 2 7.0272 7.859 2.35162 -0.0229522 -0.0117111 0.0394085
16 1 9.57229 7.35913 11.0905 -0.00186043 0.00263116 -0.00112203
17 2 9.91828 7.22904 2.13966 -0.0293952 -0.0283088 0.0176559
18 2 8.76396 6.77881 10.9951 -0.00540331 -0.0107951 0.00190511
19 1 4.71491 5.89598 10.7693 0.00754946 0.00661573 0.0039408
20 2 4.15143 5.67527 11.5397 0.01252 0.0181949 0.00614007
21 2 11.0651 8.25604 9.99665 -0.0167771 -0.00761768 -0.020283
22 1 9.84913 10.3003 11.872 0.0011614 0.00663096 0.00171993
23 2 9.49206 10.2639 3.01318 -0.0106078 0.00790419 0.0160984
24 2 9.6864 9.37502 11.5716 -0.00307939 0.0240372 0.00897595
25 1 3.52053 8.54357 6.4239 -0.000767376 -8.32618e-06 -0.00127511
26 2 3.74862 9.39122 6.03459 -0.0214273 -0.0158249 -0.0113094
27 2 3.2712 6.17954 3.59785 0.0135764 -0.0103298 0.013018
28 1 9.57882 7.12105 4.20182 -0.000921783 0.00465876 -0.00199803
29 2 9.56489 6.44582 4.8216 0.0315758 0.0125326 0.00290477
30 2 9.11054 7.91447 4.59239 0.00688734 -0.00483365 0.0185812
31 1 4.04803 11.0904 5.71401 -0.00461448 -0.00280561 0.00275883
32 2 3.39642 11.9412 5.63006 0.00313805 -0.000632077 -0.0114709
33 2 4.66866 11.1673 4.96877 -0.0115342 -0.0409335 0.00235603
34 1 7.69647 5.03505 8.89335 -0.00249432 -0.00354401 0.00322392
35 2 7.81867 4.14388 9.28689 -0.00270571 0.0205069 0.00530002
36 2 7.42794 5.59169 9.63001 -0.0208916 -0.0282403 -0.00802538
37 1 8.10071 11.8952 10.4121 -0.00305457 -0.00575496 0.0123388
38 2 9.22519 12.0683 9.06853 -0.0133683 -0.0132644 0.0159775
39 2 8.62636 11.3517 11.0212 0.0100617 -0.0211132 -0.0142247
40 1 3.08809 13.3746 5.24766 0.000483223 0.00658629 0.00505853
41 2 3.5344 4.63169 3.99291 0.0251656 -0.0275889 0.00407661
42 2 12.0293 13.3927 5.09493 -0.00166797 -0.0178335 0.00296076
43 1 3.91455 5.41366 3.54274 -0.000776451 0.00250341 -0.002143
44 2 12.4825 7.90785 5.25112 0.0112439 0.00961738 0.0228934
45 2 8.09815 12.7349 3.66708 -0.0170428 -0.0148458 0.0158986
46 1 9.84464 12.3315 8.29325 0.00161844 -0.00888852 0.00530385
47 2 8.53817 12.7181 7.345 -0.00962221 -0.00380682 -0.0197122
48 2 10.1814 11.5304 7.8951 -0.0115291 0.0240913 -0.00562709
49 1 10.2349 6.69612 8.11368 -0.00387734 -0.00475292 -0.00292876
50 2 9.55831 5.99563 7.89366 0.0231705 -0.00113045 -0.015507
51 2 10.2123 6.74534 9.1074 -0.00027507 -0.0170827 0.00151698
52 1 9.03248 10.9873 4.49275 -0.00154703 -0.00321184 -0.00157339
53 2 9.08484 10.2263 5.08757 0.00654378 -0.0131135 -0.0158809
54 2 8.47435 11.5973 5.06316 -0.0157569 -0.0265702 -0.0293218
55 1 5.08791 10.9908 3.30173 -0.00222386 0.00212564 -0.00031047
56 2 5.74091 10.2786 3.31613 0.0138326 -0.0138186 -0.0229269
57 2 4.27612 10.6145 2.87126 0.0123264 0.00110545 0.0104033
58 1 6.17167 10.0718 9.81786 -0.00435345 0.0049354 -0.00737786
59 2 4.55842 13.7327 7.86838 -0.0225186 0.0289426 0.013193
60 2 7.40184 11.2553 10.1145 -0.0144257 -0.0380784 0.0385173
61 1 7.89505 5.5191 6.29949 -0.000305195 0.000567558 -0.000411773
62 2 7.90758 5.70029 7.30023 0.0125422 0.00276068 -0.0106621
63 2 6.86884 5.55617 6.13007 0.0273537 0.0127429 0.0199414
64 1 5.32265 12.3319 7.92674 0.0011129 -0.000763266 0.00448747
65 2 4.9754 11.8748 7.082 0.0202606 -0.0135891 0.0254049
66 2 3.4697 4.16229 6.43148 0.00102054 -0.0156989 -0.00847367
67 1 11.3824 9.99946 7.68285 -0.000787246 0.00343508 -0.00771706
68 2 12.0531 9.81166 7.04363 -0.00658841 0.00155644 -0.0161116
69 2 11.6938 9.56377 8.55878 0.0110507 0.0217943 -0.0123977
70 1 10.4559 4.16367 4.79476 0.00366822 0.00293013 -0.00082695
71 2 10.2015 13.8365 3.86106 0.0143885 -0.00441764 0.00366322
72 2 9.79716 4.73755 5.19512 0.000990447 -0.0144021 -0.0231948
73 1 9.4911 8.74346 6.30212 0.00143762 -0.00754825 -0.00276831
74 2 9.73812 7.88777 6.8567 0.0115656 0.0085797 -0.0164197
75 2 9.99932 9.52413 6.77361 0.00138785 -0.00381899 -0.0213085
76 1 12.2885 5.05486 9.74991 -0.00408209 -0.00408577 -0.00689992
77 2 11.8844 5.91958 9.53328 0.0152699 0.00693993 0.0288131
78 2 4.33037 5.47258 10.0412 -0.0135785 -0.000600731 -0.000650819
79 1 11.9707 8.62833 9.96063 0.00474831 0.00136851 -0.00365659
80 2 12.1613 8.97567 10.8074 -0.01311 0.0126116 -0.00283167
81 2 5.55608 10.6042 9.38384 0.00335883 -0.0110909 -0.0127712
82 1 7.36278 5.84377 11.6234 0.00138157 -0.00525902 -0.00186705
83 2 7.29736 5.11578 2.42982 0.00294355 -0.0291336 0.00836374
84 2 6.47219 5.85167 11.1607 0.00228268 -0.00913119 0.0101703
85 1 10.2064 4.03174 11.6451 -0.00678576 0.00776841 -0.00368875
86 2 9.39798 4.64733 11.65 0.0101898 -0.0124568 0.00799668
87 2 11.6129 4.59108 10.2981 0.00483056 0.000955504 -0.0173783
88 1 7.73009 12.6408 6.73636 -4.15554e-05 -0.00383457 -0.0017264
89 2 6.23094 12.5678 7.71626 -0.00438775 -0.00201071 0.000344566
90 2 7.61671 13.5973 6.46488 -0.016814 -0.00571448 0.00528988
91 1 5.32599 6.59252 5.83607 0.00408742 0.00682891 -0.00327016
92 2 4.27569 7.8663 6.26278 0.0236325 0.00394969 -0.010351
93 2 4.83477 6.13323 6.45132 0.00429171 -0.00708315 0.00917641
94 1 3.84317 4.66683 7.566 0.00463206 9.6314e-05 0.0016081
95 2 3.06897 4.44393 8.26037 0.0461239 -0.0383062 -0.00378406
96 2 4.91041 6.41949 4.96394 -0.00244241 -0.0250536 -0.0157765
ITEM: TIMESTEP
2
ITEM: NUMBER OF ATOMS
96
ITEM: BOX BOUNDS pp pp pp
2.9236100000000000e+00 1.2773600000000000e+01
4.0306300000000004e+00 1.3880599999999999e+01
2.1372399999999998e+00 1.1987200000000000e+01
ITEM: ATOMS id type x y z vx vy vz
1 1 7.33598 13.2166 3.42318 -0.000485474 0.00337703 0.000108491
2 2 6.61203 12.6069 3.49998 0.0269386 0.00823261 -0.000667654
3 2 9.78053 13.0782 11.3222 -0.0225075 0.00351578 -0.0149099
4 1 12.4031 9.86203 2.61907 -0.0012906 0.00454778 -0.00344751
5 2 11.4871 10.1401 2.35519 -0.0240635 0.0126353 -0.00509211
6 2 12.2726 9.08395 3.2612 -0.0195749 -0.00921266 0.0108214
7 1 12.1947 7.7409 4.24985 0.00152337 0.00299511 0.00153347
8 2 11.2755 7.52187 4.3147 -0.00235749 0.0234923 0.0383809
9 2 7.96964 8.74362 7.1326 0.00281287 -0.00605718 0.0221141
10 1 7.05372 8.57492 7.45565 -0.000343519 -0.00271968 0.00596949
11 2 6.62163 7.93043 6.86004 0.0179793 -0.016434 0.0107184
12 2 6.64227 9.71755 9.0298 0.00365455 -0.0104102 0.00903838
13 1 6.76921 8.7726 2.66095 0.00330803 0.00281717 0.00173832
14 2 6.49277 9.17217 11.7033 0.00347205 0.010732 -0.0187702
15 2 7.01541 7.85429 2.37197 -0.0241797 -0.00723633 0.0416133
16 1 9.57137 7.36045 11.0899 -0.00182577 0.00260825 -0.00125134
17 2 9.90277 7.21461 2.1483 -0.0324439 -0.0290744 0.0164377
18 2 8.7622 6.77401 10.9968 -0.00150127 -0.00813118 0.00440214
19 1 4.71878 5.89936 10.7713 0.00789857 0.00685148 0.00423564
20 2 4.15789 5.68428 11.543 0.0132808 0.0178311 0.00714457
21 2 11.0569 8.25222 9.98702 -0.0151908 -0.00730041 -0.0181922
22 1 9.84964 10.3035 11.8729 0.000880455 0.00636587 0.00218013
23 2 9.48743 10.2685 3.01927 -0.0078118 0.0106622 0.00802431
24 2 9.68494 9.38743 11.576 -0.0028382 0.0248693 0.00812747
25 1 3.52013 8.54342 6.42332 -0.000782998 -0.000613996 -0.00102747
26 2 3.73881 9.38439 6.0282 -0.0177241 -0.0110015 -0.0144125
27 2 3.2784 6.17343 3.60476 0.0146707 -0.0137446 0.0147116
28 1 9.57835 7.1235 4.20069 -0.000956438 0.00514243 -0.00251635
29 2 9.58002 6.4512 4.8246 0.029028 0.00891136 0.00906707
30 2 9.11467 7.91077 4.60201 0.00949946 -0.00973795 0.0198214
31 1 4.04573 11.089 5.71549 -0.0046362 -0.00280893 0.00316653
32 2 3.39804 11.9407 5.62414 0.00351062 -0.00155274 -0.0122356
33 2 4.6632 11.1468 4.96887 -0.0102382 -0.0410024 -0.00209239
34 1 7.69524 5.03324 8.89499 -0.00243933 -0.0036895 0.00329116
35 2 7.81722 4.15481 9.2894 -0.0029223 0.0222859 0.00494845
36 2 7.4176 5.57727 9.62609 -0.0207579 -0.0287716 -0.00713883
37 1 8.09921 11.8923 10.4182 -0.00298035 -0.00577351 0.0121208
38 2 9.21918 12.0616 9.07601 -0.0103883 -0.0131442 0.0135124
39 2 8.6323 11.3412 11.0148 0.0138659 -0.0208103 -0.011438
40 1 3.08857 13.378 5.25037 0.00144161 0.00709876 0.00576199
41 2 3.5465 4.61747 3.99564 0.0232963 -0.0286429 0.00659327
42 2 12.027 13.3839 5.09695 -0.00722639 -0.0174885 0.00520922
43 1 3.91415 5.41502 3.54162 -0.000761129 0.0028803 -0.00232172
44 2 12.488 7.91288 5.2617 0.0109574 0.0104359 0.0189286
45 2 8.09012 12.7266 3.67526 -0.0148307 -0.0181244 0.0167474
46 1 9.84538 12.3271 8.29597 0.00130438 -0.0086779 0.00563655
47 2 8.53361 12.7154 7.33534 -0.00820996 -0.00708833 -0.0186038
48 2 10.176 11.5418 7.89244 -0.00994845 0.0206947 -0.00532398
49 1 10.2329 6.69369 8.11225 -0.00409943 -0.00494878 -0.00276497
50 2 9.57093 5.9962 7.88669 0.0267537 0.00289585 -0.0124445
51 2 10.2117 6.73676 9.10665 -0.00212883 -0.017274 -0.00454629
52 1 9.03163 10.9858 4.49206 -0.00181951 -0.00305715 -0.00122822
53 2 9.08841 10.2195 5.07931 0.00763937 -0.0141739 -0.0169836
54 2 8.46724 11.5836 5.04773 -0.0131412 -0.0277367 -0.0317708
55 1 5.08679 10.9919 3.30157 -0.00219672 0.00219878 -0.000335076
56 2 5.74781 10.2713 3.30442 0.0132959 -0.0148337 -0.0237988
57 2 4.28269 10.6151 2.87689 0.0133319 0.00135824 0.0118395
58 1 6.16959 10.0742 9.81416 -0.00394824 0.00467936 -0.00738626
59 2 4.54729 13.7471 7.87433 -0.0209567 0.0283545 0.0103586
60 2 7.39379 11.2364 10.1334 -0.0174654 -0.0368006 0.0371677
61 1 7.89471 5.51937 6.29936 -0.000959939 0.00050603 -0.000135673
62 2 7.91425 5.70132 7.29345 0.0142867 0.00146688 -0.0159181
63 2 6.88526 5.56284 6.13972 0.0370226 0.0138975 0.0182481
64 1 5.32308 12.3315 7.92896 0.000632414 -0.000857101 0.00440517
65 2 4.98538 11.8682 7.09532 0.0193607 -0.0130044 0.0274957
66 2 3.46869 4.15303 6.42531 -0.00518406 -0.0214387 -0.016585
67 1 11.3819 10.0012 7.67906 -0.0010654 0.00360754 -0.0074351
68 2 12.0506 9.81215 7.03514 -0.00330435 0.000442723 -0.0177167
69 2 11.6992 9.57479 8.55187 0.010426 0.0221458 -0.0150226
70 1 10.4577 4.16514 4.79431 0.00347687 0.00293858 -0.000944022
71 2 10.2086 13.8349 3.86349 0.0139698 -0.00221627 0.00577248
72 2 9.79728 4.73006 5.18302 -0.00100427 -0.0150979 -0.0248364
73 1 9.49188 8.73966 6.30087 0.00164831 -0.00761598 -0.00226511
74 2 9.74381 7.89411 6.84763 0.0112964 0.0161226 -0.0194785
75 2 9.99958 9.5202 6.76247 -0.000206482 -0.0115521 -0.0230463
76 1 12.2864 5.0528 9.74646 -0.00422101 -0.0041394 -0.00690134
77 2 11.8922 5.9224 9.54773 0.0155617 0.00457301 0.0288907
78 2 4.32248 5.47145 10.0393 -0.0176368 -0.00351211 -0.00619565
79 1 11.973 8.62895 9.95867 0.00457402 0.00110079 -0.00415771
80 2 12.1551 8.9828 10.8077 -0.0120334 0.0157638 0.0035173
81 2 5.55622 10.6001 9.37703 -0.0030853 -0.00517829 -0.0147333
82 1 7.36342 5.84111 11.6224 0.00120881 -0.0054073 -0.00184417
83 2 7.29884 5.10135 2.43375 0.00309963 -0.0279151 0.00682199
84 2 6.47365 5.8471 11.1665 0.00339718 -0.00907753 0.0126519
85 1 10.2029 4.0357 11.6432 -0.00728538 0.00800312 -0.0037135
86 2 9.40491 4.63984 11.654 0.0167812 -0.0167923 0.00801135
87 2 11.6155 4.59199 10.2891 0.00516066 0.00242021 -0.0181179
88 1 7.73007 12.639 6.73548 -5.46299e-05 -0.00354648 -0.00181596
89 2 6.23041 12.5672 7.71602 0.00229112 -0.0004243 -0.00114418
90 2 7.60809 13.5944 6.46714 -0.0176515 -0.00604413 0.0037384
91 1 5.32814 6.59606 5.83434 0.00443074 0.00727685 -0.00363621
92 2 4.28735 7.86935 6.25762 0.0228536 0.00823066 -0.0102764
93 2 4.83544 6.12804 6.45731 -0.000971728 -0.0131492 0.0140665
94 1 3.84547 4.66677 7.56683 0.00459907 -0.000319698 0.0017168
95 2 3.09222 4.42571 8.25771 0.045683 -0.034246 -0.00657473
96 2 4.90903 6.40643 4.95604 -0.00275218 -0.0269984 -0.0150804
ITEM: TIMESTEP
3
ITEM: NUMBER OF ATOMS
96
ITEM: BOX BOUNDS pp pp pp
2.9236100000000000e+00 1.2773600000000000e+01
4.0306300000000004e+00 1.3880599999999999e+01
2.1372399999999998e+00 1.1987200000000000e+01
ITEM: ATOMS id type x y z vx vy vz
1 1 7.3357 13.2184 3.42322 -0.000579892 0.00374972 3.86104e-05
2 2 6.62526 12.6105 3.49954 0.0249 0.00600821 -0.00110349
3 2 9.76958 13.0803 11.3149 -0.0209991 0.0051901 -0.0140814
4 1 12.4025 9.86428 2.61735 -0.00122914 0.00440258 -0.00339933
5 2 11.4747 10.1469 2.35254 -0.0246586 0.0144517 -0.00525331
6 2 12.2632 9.07953 3.26659 -0.0180052 -0.00792051 0.0102823
7 1 12.1956 7.74239 4.25066 0.00201825 0.00295665 0.00174362
8 2 11.2722 7.5332 4.33367 -0.0105436 0.0219026 0.0372347
9 2 7.97102 8.7403 7.14314 0.00269565 -0.00722689 0.0200505
10 1 7.0535 8.57356 7.45865 -0.000512746 -0.00272994 0.00602345
11 2 6.6312 7.92262 6.86566 0.020188 -0.0148932 0.0116865
12 2 6.64407 9.71172 9.03466 0.00356353 -0.0129322 0.0101675
13 1 6.77089 8.77392 2.66183 0.00338919 0.00250472 0.00176417
14 2 6.49434 9.17779 11.6931 0.00317457 0.0110873 -0.0210195
15 2 7.00302 7.85177 2.39324 -0.0253052 -0.00308248 0.0430563
16 1 9.57046 7.36174 11.0892 -0.00182006 0.00251724 -0.00128873
17 2 9.88583 7.19997 2.1561 -0.0350507 -0.029102 0.0143865
18 2 8.76245 6.77068 10.9996 0.00248285 -0.0050528 0.00617035
19 1 4.72281 5.90283 10.7735 0.00818716 0.00702373 0.00441415
20 2 4.16471 5.6931 11.5469 0.0139731 0.0174332 0.0081987
21 2 11.0499 8.24874 9.97846 -0.0119815 -0.00627655 -0.0160039
22 1 9.85001 10.3067 11.8741 0.000611166 0.00618513 0.00267663
23 2 9.48425 10.2745 3.0212 -0.00491963 0.0133886 -0.000238397
24 2 9.68356 9.39989 11.5798 -0.00280183 0.0242277 0.00679137
25 1 3.51974 8.54295 6.42288 -0.000756316 -0.00127207 -0.000769599
26 2 3.73089 9.38022 6.02017 -0.0139895 -0.00539911 -0.0177383
27 2 3.28587 6.1658 3.61256 0.0145995 -0.0162818 0.0165872
28 1 9.57786 7.12619 4.19931 -0.000981894 0.00557741 -0.00300667
29 2 9.59392 6.45473 4.83066 0.0267108 0.00533517 0.014847
30 2 9.12004 7.90474 4.61221 0.0117551 -0.0139841 0.0209199
31 1 4.0434 11.0876 5.71718 -0.00467726 -0.00283062 0.00357617
32 2 3.39993 11.9396 5.61783 0.00425922 -0.00282306 -0.012991
33 2 4.65842 11.1263 4.96668 -0.00891596 -0.0408476 -0.00661397
34 1 7.69403 5.03136 8.89665 -0.00237448 -0.00380243 0.00326949
35 2 7.81575 4.16616 9.29183 -0.00279351 0.0221243 0.00500712
36 2 7.40719 5.56292 9.62287 -0.0211793 -0.0279537 -0.00526735
37 1 8.09773 11.8894 10.4242 -0.00296045 -0.0059094 0.0118864
38 2 9.2148 12.0551 9.08205 -0.00696566 -0.0128925 0.0103572
39 2 8.64023 11.3309 11.0098 0.0178394 -0.0198688 -0.00870396
40 1 3.08953 13.3817 5.25342 0.00236942 0.00760568 0.00642389
41 2 3.5577 4.60305 3.99951 0.0216415 -0.028345 0.00860185
42 2 12.0221 13.3752 5.10014 -0.0122977 -0.0169762 0.00766885
43 1 3.91378 5.41654 3.54042 -0.000687583 0.00311581 -0.00246867
44 2 12.4935 7.91829 5.27005 0.0107946 0.0111197 0.0140556
45 2 8.08332 12.7167 3.68383 -0.0122546 -0.0207657 0.0174344
46 1 9.84594 12.3228 8.29889 0.000913268 -0.00837335 0.00606118
47 2 8.52996 12.7111 7.3264 -0.00604132 -0.0101302 -0.0168908
48 2 10.1715 11.5511 7.88977 -0.00778737 0.0156364 -0.00566912
49 1 10.2308 6.69117 8.11091 -0.00423866 -0.00507131 -0.00258759
50 2 9.58507 5.99852 7.88121 0.0291146 0.00570698 -0.00965985
51 2 10.2102 6.72806 9.10285 -0.0040104 -0.0175263 -0.0104078
52 1 9.03066 10.9843 4.49152 -0.00201261 -0.00297292 -0.000978383
53 2 9.09248 10.2122 5.07059 0.00851212 -0.0150733 -0.0177469
54 2 8.46121 11.5696 5.03139 -0.0115176 -0.0280279 -0.0328784
55 1 5.08571 10.993 3.3014 -0.00203723 0.00219915 -0.000334941
56 2 5.75421 10.2638 3.29233 0.0118349 -0.0144868 -0.0244698
57 2 4.28946 10.6158 2.8831 0.0131105 0.00132255 0.0126593
58 1 6.16772 10.0765 9.81048 -0.00353228 0.00441577 -0.00733562
59 2 4.53746 13.7611 7.87874 -0.0174058 0.0271263 0.00701968
60 2 7.38437 11.2185 10.1517 -0.0198494 -0.034224 0.0358238
61 1 7.89409 5.51961 6.29936 -0.0014381 0.000440439 0.000103882
62 2 7.92187 5.70176 7.28431 0.0163409 0.000443151 -0.0198655
63 2 6.90586 5.57007 6.14832 0.0436482 0.01501 0.0157286
64 1 5.32328 12.3311 7.93114 0.000216758 -0.000940802 0.00436517
65 2 4.99476 11.8618 7.1095 0.017866 -0.0128255 0.0287798
66 2 3.46451 4.14085 6.41489 -0.0116541 -0.0273518 -0.025457
67 1 11.3813 10.0031 7.67541 -0.00132051 0.00378642 -0.00719823
68 2 12.0497 9.81211 7.02592 -0.000400456 -0.000497625 -0.0189131
69 2 11.7042 9.58591 8.54376 0.00993706 0.0221636 -0.0171427
70 1 10.4594 4.16661 4.79381 0.0033547 0.00290592 -0.00105953
71 2 10.2155 13.8343 3.86683 0.0134291 -0.000251603 0.00716611
72 2 9.79616 4.72245 5.17028 -0.00396389 -0.0149063 -0.025729
73 1 9.49275 8.73584 6.29985 0.00181426 -0.00763733 -0.00185598
74 2 9.74941 7.9039 6.83722 0.0112793 0.0220819 -0.021653
75 2 9.99911 9.51258 6.75057 -0.00139631 -0.0182909 -0.0242937
76 1 12.2843 5.05072 9.74301 -0.00429633 -0.00418215 -0.00690737
77 2 11.9 5.92415 9.56217 0.0156616 0.0027115 0.0287753
78 2 4.31273 5.46907 10.0351 -0.02089 -0.00544387 -0.0100088
79 1 11.9753 8.62943 9.95647 0.00431738 0.000822567 -0.00460648
80 2 12.1493 8.99144 10.811 -0.0112803 0.0185311 0.00909004
81 2 5.553 10.5991 9.36911 -0.00968031 0.00095296 -0.0170409
82 1 7.36398 5.83836 11.6215 0.00105122 -0.00563842 -0.00171918
83 2 7.30046 5.08786 2.43664 0.00348653 -0.0254417 0.00426258
84 2 6.47559 5.84259 11.1734 0.00407572 -0.00887604 0.0147439
85 1 10.1992 4.03974 11.6413 -0.00771187 0.00808823 -0.00376429
86 2 9.41476 4.63054 11.658 0.0215583 -0.019535 0.00807061
87 2 11.6181 4.5935 10.28 0.00478796 0.0033762 -0.0181761
88 1 7.73003 12.6373 6.73455 -0.000123251 -0.00327911 -0.00194447
89 2 6.23323 12.5674 7.71512 0.00871858 0.00115721 -0.00229359
90 2 7.59906 13.5913 6.46862 -0.0183471 -0.00637155 0.00223893
91 1 5.33042 6.5998 5.83243 0.00461748 0.0076372 -0.00398788
92 2 4.29854 7.87453 6.25251 0.0217806 0.0123228 -0.0101518
93 2 4.83379 6.12008 6.46539 -0.00480788 -0.0179066 0.017349
94 1 3.84777 4.66651 7.56772 0.00459895 -0.000686515 0.00185448
95 2 3.11465 4.40968 8.2538 0.0428812 -0.0296303 -0.00874542
96 2 4.90766 6.39249 4.94886 -0.00234805 -0.028489 -0.0129455
