ITEM: TIMESTEP
0
ITEM: NUMBER OF ATOMS
1151
ITEM: BOX BOUNDS pp pp pp
1.6762900000000000e-01 2.2849499999999999e+01
-2.0329000000000000e-01 2.2478600000000000e+01
8.2643499999999995e-02 2.2764500000000002e+01
ITEM: ATOMS id type x y z vx vy vz 
56 4 2.22102 5.03758 0.709206 0.0216975 -0.00715429 -0.0305583 
168 3 3.83407 0.0774809 2.79664 -0.000173606 -7.18346e-05 -0.00328642 
170 4 3.43986 0.281297 1.94853 -0.0255863 -0.0293734 0.0101648 
210 3 2.75839 4.47097 2.28791 0.00674897 0.00370005 0.00116654 
211 4 3.66814 4.1974 2.17067 -0.0284151 -0.013901 0.00396077 
212 4 2.4586 3.9846 3.05589 -0.00141518 -0.00822569 -0.00815546 
357 3 5.11436 3.62804 1.75418 -0.00461264 0.00480546 -0.00477271 
358 4 5.81157 4.16515 1.37783 0.00926979 -0.0131346 -0.000712116 
359 4 5.52458 3.19065 2.50027 0.00766792 -0.0235953 -0.00217791 
480 3 0.267423 1.47574 2.11299 -9.10452e-05 -0.00130388 -0.00430161 
481 4 0.300422 1.89413 1.2527 -0.00635727 -0.0101297 -0.00868601 
482 4 0.315217 0.538223 1.9259 -0.00898557 0.0107807 0.021985 
864 3 2.64011 4.96368 5.49958 0.00255315 -0.000746918 0.00191032 
866 4 2.24209 4.10972 5.66862 -0.0184026 0.0230899 0.00102498 
871 4 4.43072 0.483115 5.66382 -0.00468293 -0.0175219 -0.0158372 
879 3 2.09584 2.25093 3.86109 -0.000890906 -0.00755686 -0.000648799 
880 4 1.36973 1.97305 3.30272 -0.005845 -0.00710796 -0.0247608 
881 4 2.77246 1.58822 3.72243 0.0161422 -0.0159764 0.0240133 
1137 3 2.58708 0.771576 0.152424 0.0047956 -0.00632852 -0.000693731 
1138 4 1.6976 1.1229 0.192808 0.0255054 0.0186523 0.0364465 
99 3 11.5078 2.86327 3.90615 -0.0103157 0.00311247 0.00238004 
100 4 11.3605 3.60279 4.49575 0.00924425 0.00351461 0.0206128 
135 3 10.0174 2.74366 1.61606 -0.00421398 0.00390799 0.00784518 
136 4 9.26106 3.17605 2.01254 -0.000812239 0.00465114 -0.0140656 
137 4 10.6576 2.68208 2.32504 -0.00386395 0.00825768 0.0103741 
339 3 11.5078 5.42146 0.824231 0.00214212 0.00140831 -0.00487904 
341 4 10.9628 4.68156 0.556388 0.0257503 0.0174337 0.0028457 
594 3 8.7938 4.39803 3.59627 -0.00416136 0.000167833 -0.0034961 
595 4 8.49396 3.51598 3.81608 -0.0252633 -0.0143327 -0.00591331 
596 4 8.20504 4.6846 2.89808 0.0275701 0.0131738 -0.00271722 
714 3 7.35555 1.83147 3.01298 0.00412707 -0.00875839 0.00123269 
715 4 7.60874 1.3739 2.21125 0.00434361 0.0112555 -0.00601675 
716 4 6.98375 1.14891 3.57164 0.015177 -0.0223956 0.00627167 
852 3 7.22344 5.22417 1.22143 0.00426168 0.000326971 0.00241172 
855 3 9.08762 0.752605 5.71312 -0.00441803 -0.0063294 0.00211313 
857 4 9.37513 0.573555 4.81785 0.0020827 -0.0123237 0.0052746 
933 3 8.34164 0.878683 0.326067 -0.00802116 0.00454971 -0.000356506 
934 4 9.04284 1.50697 0.498721 0.0155369 0.00356288 -0.0101641 
101 4 12.401 2.98679 3.5848 0.00598713 0.0201249 0.0298838 
233 4 15.3353 1.78536 0.102938 0.0394273 0.00576364 0.0191166 
240 3 14.0463 2.77657 2.95539 0.00279172 -0.00272202 0.00542939 
241 4 14.7515 2.13771 2.85137 0.00325885 0.0277872 -0.0127704 
242 4 14.4404 3.61198 2.70432 -0.00490396 -0.00719303 0.0209671 
300 3 15.6048 0.553128 3.57514 0.00339822 -0.000399519 0.00734636 
301 4 14.7914 0.481408 4.07458 -0.0305124 -0.0317549 0.0186309 
302 4 16.2673 0.15029 4.13638 0.018011 -6.97457e-05 0.00411757 
819 3 16.5717 1.47431 1.24069 -0.00188237 -0.000386244 0.0013947 
820 4 16.4184 1.11208 2.11333 -0.0111272 0.0118318 -0.00342381 
821 4 16.7022 0.707917 0.682248 0.0260744 -0.0127099 0.0142416 
917 4 14.5863 0.0977584 1.83542 0.00414513 0.00360304 -0.0219822 
1086 3 14.6902 5.28047 1.82089 -0.00287131 -0.00212939 -1.26425e-05 
1088 4 14.9611 5.2579 0.903117 -0.0208429 0.0102327 0.0105031 
117 3 18.7023 2.7951 0.385814 -0.00109692 -0.005652 0.00224211 
118 4 17.865 2.35434 0.530197 0.00833916 0.0104278 0.00597334 
119 4 18.9519 3.12486 1.24905 0.0264216 0.0197566 -0.0153286 
519 3 19.0566 4.34384 2.85738 -0.00343226 0.00099136 0.00887677 
520 4 18.2984 4.5337 3.40989 -0.0383129 0.00104659 -7.94437e-05 
521 4 19.0038 4.98511 2.14872 -0.0157891 0.0304645 0.0093188 
768 3 20.5031 0.153439 5.31673 -0.00247608 -0.00125027 -0.00460777 
770 4 20.754 0.980864 4.90601 -0.00858003 0.000245989 -0.0263052 
987 3 20.9635 2.23004 3.77036 0.00266278 -0.00421379 -0.00589257 
988 4 20.7205 3.12792 3.54461 0.0106107 0.0193219 -0.000246386 
989 4 21.5212 1.94333 3.04715 -0.0191681 0.0154703 -0.00941506 
1142 4 22.1808 2.99203 4.99413 0.0147703 0.00175389 0.0186536 
315 3 2.0288 9.88663 5.00037 -0.00117915 0.00119252 0.00202177 
316 4 1.14635 10.2448 4.90426 0.0125371 -0.00584204 -0.00518696 
317 4 2.47006 10.1127 4.18159 -0.017456 -0.0275662 -0.00824772 
415 4 1.70929 7.88636 5.64617 -0.00895564 -0.00251746 -0.000907717 
416 4 1.66978 6.37771 5.52662 0.0147835 -0.0194781 0.0149872 
422 4 5.82654 9.46021 4.88021 -0.022748 -0.00911194 0.00352076 
552 3 5.77606 7.40308 2.03089 0.00104227 0.00318863 -0.00315855 
554 4 5.53918 7.50845 1.10947 0.0205177 0.0151059 0.0254548 
621 3 0.26282 10.7058 1.28397 0.000969247 -0.00324342 -0.00377458 
622 4 1.14048 10.536 1.62619 0.0123489 -0.0207239 -0.0300553 
719 4 4.06691 11.1221 3.28586 -0.0290051 0.0182511 -0.00388969 
765 3 5.63744 10.607 1.90794 -0.00272434 0.000160385 0.00618291 
766 4 5.01625 10.2288 1.2856 -0.00665122 -0.0276237 0.00446196 
849 3 4.2143 7.71685 4.15354 0.00693778 0.00346066 -0.00357607 
850 4 3.59274 6.98936 4.17902 -0.0083142 0.0182635 -0.00601274 
851 4 4.83825 7.47555 3.46893 -0.0204219 -0.0237551 -0.0170496 
340 4 11.205 5.63557 1.70666 -0.00184209 -0.0128645 -0.000376475 
393 3 7.03036 6.24449 5.52079 0.00279124 -0.00253235 0.00599523 
395 4 6.82173 5.65138 4.79903 -0.0127903 0.000410455 -0.00168708 
420 3 6.70413 9.09738 4.7601 -0.00265078 0.00400683 -0.00182481 
421 4 6.62393 8.18178 5.02744 -0.00271029 0.00354916 -0.00575746 
454 4 8.9002 8.05406 0.386203 -0.00641233 0.0159822 -0.000224672 
455 4 10.0861 7.13364 0.190062 0.0105915 -0.0137332 -0.00767887 
553 4 6.06018 8.27451 2.3068 0.0179144 0.00522463 -0.0025584 
767 4 6.42406 10.7758 1.38932 0.0233368 -0.00154336 0.00219046 
783 3 8.6307 11.0754 3.97009 -0.000959658 0.00425446 -0.000935246 
785 4 8.20311 10.2244 3.87422 0.0126172 0.0103199 0.00280749 
822 3 9.76687 6.82793 2.92736 0.000948147 0.00377231 -0.00467842 
823 4 9.29418 6.20549 3.47997 -0.0157531 0.0180758 -0.0170387 
824 4 10.5421 7.06153 3.43792 0.0149804 -0.0288246 0.00704657 
853 4 7.73512 5.57754 0.493727 -0.0119322 -0.0138792 0.000631429 
854 4 7.17218 5.94381 1.8505 -0.0170224 0.0139769 -0.00992264 
954 3 10.3583 10.9822 0.888662 0.000224688 0.00126702 -0.00771778 
955 4 9.65276 10.5671 1.38486 0.025134 0.0158122 0.0230482 
21 3 14.7824 8.05947 3.25654 -0.000727372 0.00028001 0.00544694 
22 4 15.0893 8.79696 3.78389 0.000129737 -0.00742318 0.0129234 
23 4 15.1268 8.2313 2.38014 -0.0175625 0.0190373 -0.0098177 
282 3 14.8054 11.1351 1.84364 -0.00488953 0.00169393 0.00702841 
342 3 13.3876 7.17793 5.37019 -0.0114381 -0.00199497 0.00233312 
344 4 13.8627 7.316 4.55073 -0.000223069 0.00131392 2.34209e-05 
378 3 16.4798 5.55943 4.13514 1.86912e-05 0.00271688 -0.00817011 
379 4 15.5965 5.84356 3.90001 0.00333849 -0.000126343 0.0169695 
380 4 17.0551 6.21948 3.74842 -0.0213471 0.000656666 -0.0253522 
503 4 14.0688 10.6679 5.1886 0.00545639 -0.000499281 -0.0353561 
1012 4 17.127 8.90851 0.437999 0.00630647 -0.0141711 -0.0118601 
1087 4 13.7853 5.59174 1.79638 0.0176019 -0.00840818 0.0137399 
1095 3 15.6687 10.3177 4.67488 -0.00671755 0.00189295 0.00268923 
1096 4 16.5263 10.5738 4.33553 -0.00392647 0.0328155 0.00230144 
1097 4 15.8494 9.97566 5.55041 -0.000771673 0.0190267 -0.00429477 
129 3 21.6525 8.38906 1.5817 0.00289596 -0.00274566 0.000940172 
130 4 20.8489 8.71347 1.17532 0.00865474 -0.0191899 0.0265376 
131 4 21.6187 7.44066 1.4567 -0.0225622 -0.0172146 -0.0130419 
201 3 18.6115 10.5354 4.92915 0.00250886 -0.00356223 0.00399803 
202 4 19.4652 10.9003 4.69621 -0.00101508 -0.0149839 0.00839938 
203 4 18.2813 11.1159 5.61485 0.0151512 -0.0133457 -0.0139982 
258 3 21.1579 6.02877 0.463826 0.00138703 0.00180042 0.00211211 
259 4 20.4126 6.14734 1.05252 0.0289084 0.000657408 0.000505359 
602 4 21.3028 10.3741 4.67595 0.00776179 -0.0248 0.0107944 
618 3 18.5463 6.30627 1.35038 -0.00534755 0.00495198 0.00201855 
619 4 18.0049 6.176 0.571823 -0.0152625 -0.0188688 -0.00931718 
620 4 18.1459 7.05088 1.79926 -0.0152605 0.00704251 0.0233128 
623 4 22.5789 9.83664 1.1196 -0.0129081 -0.0244863 0.00234525 
903 3 22.2108 9.00189 4.06365 -0.00106168 -0.000105786 -0.000498412 
904 4 22.2356 8.94057 3.10874 0.00728481 -0.00833408 0.00663877 
905 4 22.1402 8.09467 4.36064 -0.00722165 -0.00497829 0.00283501 
969 3 18.2563 7.75539 4.1402 0.00236356 -0.0100011 -0.00311944 
970 4 19.1119 8.1259 3.92378 0.00620581 -0.00757422 0.00436491 
971 4 17.7461 8.49982 4.45933 -0.00251613 0.0183896 -0.00015726 
1011 3 17.6698 8.81493 1.22082 -0.000504515 0.00172796 0.00339279 
1013 4 18.5025 9.22443 0.985837 0.0121035 0.0185491 -0.0267991 
219 3 0.752218 14.0383 3.12695 -0.00223597 0.000559548 0.00318479 
221 4 0.53918 13.8869 2.20612 -0.0211149 -0.019752 -0.00232622 
270 3 4.00981 14.515 2.40886 0.00144881 -0.00152735 0.00771525 
271 4 3.85837 15.4231 2.67089 0.0038302 -0.00475072 0.0231472 
272 4 3.87667 14.0086 3.21015 0.00139181 -0.0174622 -0.00129684 
540 3 1.65917 14.5386 5.72126 -0.00569229 -0.000326324 -0.00247276 
541 4 1.51502 14.8173 4.81695 -0.0353755 -0.00542563 -0.0197141 
717 3 3.18316 11.4536 3.12657 -0.00425199 0.00506689 0.00323365 
718 4 3.18902 11.7205 2.20735 -0.0216861 0.00289194 0.0105557 
760 4 1.51528 14.3377 0.278325 -0.00589152 -0.00860412 -0.0010042 
761 4 2.90617 14.5933 0.818659 -0.00858277 0.0127323 0.00189948 
807 3 4.72643 14.6059 5.61262 0.00580443 -0.00266867 0.00241414 
816 3 5.82007 14.0413 0.209172 -0.00318246 0.00106295 0.002346 
818 4 5.04023 13.6861 0.635653 0.0526429 -0.00264209 0.0324139 
840 3 3.06935 11.8069 0.3221 -0.000210025 -0.00563004 -0.00370576 
85 4 7.47044 12.8876 0.214409 -0.0178644 -0.00309826 0.00627942 
153 3 7.44328 13.2784 2.96011 0.00357212 -0.00255014 -0.000190123 
154 4 7.72733 12.4058 3.23238 -0.00235935 0.0360066 0.0226326 
155 4 6.87983 13.5805 3.67249 -0.000133051 -0.030608 0.0330507 
465 3 10.3417 16.7816 3.41389 -0.00129367 2.01082e-07 -0.00923133 
466 4 11.061 16.7287 4.04313 0.0182195 -0.0103448 0.0275262 
467 4 9.71823 16.1164 3.70555 0.0271516 -0.0182685 -0.00917659 
784 4 8.81729 11.1462 4.90626 0.0132645 -0.0219929 -0.0046021 
817 4 6.12228 14.7322 0.798681 0.00859191 -0.0199001 0.00372242 
831 3 8.48615 15.9511 5.34675 -0.00527995 -0.00106928 -0.00185415 
862 4 11.1559 16.6162 0.233771 0.0256538 0.022108 -0.0131196 
882 3 7.91429 15.7873 1.70199 0.00266378 -0.0045859 -0.000223423 
883 4 8.3635 15.8555 0.859499 0.0380856 -0.000827573 0.00327272 
884 4 7.88718 14.848 1.88418 0.0192803 -0.00332396 0.0175902 
956 4 9.97374 11.7941 0.558084 -0.0189976 -0.0241871 -0.0037761 
171 3 14.2121 15.1598 3.487 -0.00239867 0.00360067 0.00432658 
172 4 14.4463 15.6634 2.70738 -0.00581067 -0.00902351 0.014692 
173 4 15.044 14.809 3.80498 -0.017046 0.0273575 -0.00185306 
194 4 12.2991 14.4902 0.820218 -0.00549531 0.0018225 0.00950731 
283 4 15.4865 11.3193 1.19678 -0.0276898 -0.0230519 -0.0185164 
284 4 15.2571 11.1777 2.68649 0.0250827 0.00274145 -0.00575668 
312 3 12.5107 12.5334 1.86723 -0.00152968 0.00553965 -0.00205117 
313 4 11.7758 11.9213 1.90685 0.0253495 -0.0194277 -0.0197005 
314 4 13.2789 11.9779 1.73546 0.012164 0.0200756 0.0273602 
424 4 17.0792 12.3065 1.13492 -0.0110341 0.00262545 -0.0141069 
501 3 13.2979 11.2014 5.38194 0.00431671 -0.00357452 -0.00702427 
502 4 13.0351 11.5596 4.53409 0.0106721 0.0186606 0.0286973 
663 3 14.2428 16.6811 1.16133 0.00218617 -0.00172742 -0.00149043 
664 4 13.6855 16.0905 0.654565 -0.0310429 0.00919003 0.00944194 
729 3 11.9884 13.7965 4.31134 -0.00521424 0.00449622 0.00347365 
730 4 12.8221 14.2375 4.47483 -0.0176566 0.0132661 0.0264299 
731 4 12.0424 13.5119 3.39905 -0.0213085 -0.0104051 -0.0020975 
754 4 13.2732 16.4429 4.4059 0.0277222 0.0322457 -0.00485843 
42 3 17.7179 13.9119 4.33837 0.00168662 0.00132955 0.00601348 
43 4 17.6085 13.4062 3.53308 -0.0218599 0.00474639 0.0099496 
44 4 17.5245 13.2904 5.0402 0.00445051 -0.0106668 -0.0266099 
102 3 20.0826 12.0058 2.05846 0.0075168 -0.00317122 0.004447 
103 4 20.6728 11.2691 2.21709 -0.0147719 -0.0157559 0.0252171 
104 4 20.4066 12.403 1.25005 -0.0154149 -0.000899788 0.00512276 
165 3 22.3376 13.2654 0.606032 0.00623692 0.00400725 0.00140297 
167 4 22.5276 12.3718 0.891707 0.00512463 -0.0248502 -0.00791033 
220 4 22.5901 14.215 3.54262 -0.0156954 0.0160491 0.00840004 
348 3 20.7004 14.3117 3.85737 0.00101007 0.00418205 -0.00113999 
349 4 20.3879 13.4155 3.73329 -0.00946112 -0.0241795 0.0179689 
350 4 19.9082 14.8482 3.82957 -0.0097886 0.0196672 -0.0152429 
423 3 17.4598 12.7922 1.86668 0.00910017 -0.00370989 0.00478587 
425 4 18.2643 12.3181 2.07685 0.0253108 0.014902 -0.035452 
516 3 21.4633 16.0531 1.10387 -0.00238318 0.00163912 0.000756783 
517 4 20.6923 15.5105 0.938689 0.00116874 0.0116784 0.012352 
518 4 22.2057 15.4738 0.931916 0.000186075 -0.00666808 0.0112902 
600 3 21.1797 11.2876 4.93394 -0.000298768 -0.000845363 0.003196 
601 4 22.0607 11.6615 4.92084 0.00156634 0.00947026 0.0106471 
706 4 18.9637 16.3653 1.00818 -0.0231486 0.0279835 0.00469868 
813 3 19.122 14.6634 0.676 -0.00298879 -0.000507513 -0.0022267 
814 4 18.7339 14.0856 1.33309 -0.00560534 0.00929424 -0.00027599 
945 3 18.4973 16.6948 4.27617 0.00425936 -0.000691195 0.00094168 
946 4 18.2754 16.0585 4.95591 -0.0142796 0.0294784 0.00821333 
1076 4 21.1524 15.3032 5.5678 -0.00448866 0.00107875 -0.000618419 
66 3 4.89632 19.1036 5.46158 0.000340538 -0.00105007 0.00201675 
68 4 5.50121 18.5734 4.94268 0.000135517 -0.0192489 0.00313327 
96 3 4.87138 20.8856 0.319447 -0.00255096 8.56148e-05 0.00126979 
98 4 4.75533 20.6458 1.23883 -0.0172579 0.0114583 0.00874249 
121 4 5.3477 22.321 3.35068 0.00672404 0.027881 0.000617777 
169 4 3.20159 22.1806 3.22241 0.00962463 0.0259091 -0.000667981 
186 3 0.572104 21.4841 0.715189 9.24296e-05 -0.000709154 -0.0024765 
228 3 1.76295 17.3682 3.58191 0.00108543 -0.00190775 0.00444908 
229 4 2.00601 17.9429 4.30778 0.00921141 -0.0179782 0.00171037 
230 4 0.807332 17.4129 3.55001 -0.0134682 0.00563569 0.0106777 
450 3 1.90545 20.8122 3.11828 0.00047659 0.00130145 0.00136482 
451 4 2.32997 19.9554 3.07307 -0.0119569 0.00589355 0.0128388 
452 4 1.64793 21.0003 2.21578 0.0173323 -0.0141664 -0.000445555 
648 3 4.58995 19.482 2.59837 0.00665885 0.00247159 -0.00643734 
649 4 5.30596 18.8469 2.61597 0.0045884 0.000684979 0.0083086 
650 4 4.43528 19.6948 3.51869 -0.00655238 -0.0058392 0.0124804 
679 4 0.627702 20.8863 4.35009 -0.0257799 -0.0124932 0.00802398 
744 3 2.26959 17.6168 0.528222 -0.00149991 0.0069723 -0.00150125 
745 4 2.55571 17.8277 1.41698 0.00492082 0.00818112 0.0237549 
746 4 1.4305 18.0675 0.432967 -0.0012711 -0.00377199 0.005585 
120 3 6.1836 22.0718 3.74483 0.00108785 -0.00165364 0.00171608 
122 4 6.6769 21.6719 3.02859 -0.00630765 0.0210405 -0.0162663 
144 3 10.8655 21.7166 4.58369 -0.00280426 -0.000827049 -0.00297429 
145 4 10.5477 22.1395 5.38146 -0.0148237 -0.00720041 0.0126591 
146 4 10.3629 20.904 4.52633 0.00936822 0.0176576 -0.00771867 
204 3 9.74665 19.1423 4.64802 0.00680759 0.000470935 -0.000740514 
205 4 10.1705 18.3389 4.34602 -0.0141289 -0.00497511 -0.00819816 
206 4 9.57431 18.9881 5.57687 0.0165282 -0.0148309 0.00745326 
293 4 7.05635 18.6725 0.596672 0.00197833 -0.0125976 -0.0226371 
399 3 8.39226 20.7848 2.22531 -0.00440986 -0.00466923 -0.000515536 
400 4 9.28229 21.0258 1.96837 0.00433049 0.00857771 0.00862745 
401 4 8.50062 19.9929 2.75205 0.0016539 0.0172768 -0.00829315 
581 4 6.89108 21.2779 5.28514 0.0115958 0.0107973 -0.00767307 
861 3 10.4941 17.2506 0.508949 0.00349604 -0.00318915 -0.000225669 
863 4 10.3002 17.0168 1.41666 0.0179436 0.0199607 -0.012549 
972 3 6.77746 17.8802 3.76604 0.00514393 0.000151456 -0.00723107 
973 4 7.58325 18.1682 4.19497 -0.0335304 -0.00547 -0.00801338 
974 4 7.02533 17.0808 3.30156 0.010927 -0.00572109 0.0102871 
990 3 10.7837 19.9826 0.992507 0.00560332 0.000697854 -0.00665563 
991 4 11.1206 20.5571 0.304991 -0.0171191 0.00321893 0.0196576 
992 4 10.4333 19.2258 0.522596 -0.00798644 -0.00613677 -0.0155218 
432 3 16.467 17.6685 2.83384 0.00373666 -7.24353e-05 -0.000515766 
433 4 16.2256 18.5867 2.95601 0.00261319 0.00808183 0.0187959 
434 4 15.844 17.3408 2.18515 -0.00624063 0.0196506 -0.00317861 
477 3 15.6645 20.4137 2.79384 0.000219239 -0.00450125 -0.00186623 
478 4 14.904 20.551 2.22903 -0.000149547 0.0364103 -0.00957453 
479 4 15.7979 21.2574 3.22593 0.0104306 -0.0255062 0.00559012 
665 4 13.9874 17.5577 0.873816 -0.0279479 -0.0116985 0.0142538 
753 3 12.6866 17.1031 4.77503 -0.00348707 -0.00130639 0.0037277 
755 4 12.6555 17.7936 4.11283 -0.0106443 -0.00274759 0.0308723 
900 3 13.6816 21.879 5.18977 0.00263819 0.00515731 0.00332668 
902 4 12.7384 21.9831 5.06433 0.00262989 0.00656777 -0.00698104 
915 3 14.2432 22.1963 1.15852 0.00218158 0.00314004 -0.00509055 
916 4 14.9685 22.0902 0.542927 -0.00839162 0.000775797 -0.0162503 
1002 3 12.8161 19.233 2.93096 0.00617068 -0.000113043 -0.00836173 
1003 4 13.0419 20.0636 3.34962 -0.00494017 0.0157991 0.000112328 
1004 4 11.9423 19.377 2.56767 0.0206585 0.00160753 0.00525781 
159 3 21.1391 17.2958 3.45358 -0.00619459 -0.00565079 0.000383229 
160 4 21.1189 16.8094 2.62946 -0.00954956 -0.0111695 -0.00106319 
161 4 20.4314 16.9157 3.97406 -0.000776831 -0.00851662 0.0368966 
187 4 22.7181 20.691 0.723702 -0.0027394 -0.00580442 -0.0262113 
215 4 19.1253 21.2973 0.098869 -0.00386604 -0.0205027 -0.012442 
237 3 22.4535 18.8229 0.2268 -0.00108808 -0.000261863 -0.00223776 
238 4 22.0459 17.9918 0.470437 -0.0167269 0.0148121 0.012991 
255 3 19.6864 19.6901 4.42042 -0.00517138 -0.00257415 -0.00578766 
256 4 20.0723 18.8367 4.22286 -0.00365616 0.00847786 0.0188772 
257 4 18.9351 19.4903 4.9788 -0.00142386 -0.0164728 0.00352335 
462 3 19.5307 20.2061 1.42311 -0.000653451 -0.00580901 0.00325526 
463 4 19.888 20.5306 2.24977 0.0121378 0.015261 0.00960905 
464 4 19.4603 19.2596 1.54718 -0.0374935 -0.00631016 0.0145672 
483 3 17.6378 21.8178 5.08376 0.000708291 -0.00355531 -0.0102962 
484 4 17.5513 20.8697 5.18293 0.0187615 -0.0154507 -0.0144815 
485 4 18.5813 21.9679 5.02487 -0.00492638 -0.0381197 -0.00405615 
678 3 22.7463 21.0487 5.10676 -0.000940472 4.16043e-05 -0.00639961 
705 3 18.627 17.2602 0.964001 0.00396978 -0.00389415 -0.00225881 
707 4 18.1931 17.3953 1.80644 -0.0164173 -0.00210176 -0.0273604 
769 4 21.2147 22.2335 5.09814 0.00416451 0.00873257 0.0061225 
947 4 17.6703 16.8607 3.82354 0.0227954 -0.00921657 0.0293073 
48 3 2.52179 0.109049 9.15698 -0.00257084 -0.00636438 0.00384676 
49 4 2.76994 0.524038 9.98308 -0.0121565 -0.019624 0.01192 
50 4 2.03718 0.785892 8.68447 0.00947106 -0.00515771 0.0352085 
111 3 1.84759 2.197 7.33328 -0.000908389 0.00207582 0.00310019 
112 4 1.25302 2.43531 6.62199 -0.0110718 0.0258646 -0.00476447 
113 4 2.65106 1.92112 6.89219 -0.0137581 0.00120556 0.00586271 
141 3 4.97525 3.04948 10.6837 -0.000403278 -0.00187466 -0.00454331 
143 4 5.28464 2.14366 10.6828 -0.0113916 0.0108701 0.020772 
222 3 0.471765 2.851 10.2369 -0.0065681 -0.00281712 -0.00172192 
224 4 1.19145 2.85377 9.60578 0.0227354 -0.00178901 -0.0242655 
411 3 5.74868 4.14267 6.88455 0.0108338 -0.00226088 -0.000308976 
412 4 5.67425 4.20777 7.83663 -0.00181521 0.0199221 0.0188311 
492 3 5.7228 0.0172711 11.4187 -0.00689667 0.000473217 -0.00187234 
865 4 3.55146 4.86226 5.77413 -0.015049 0.0217989 0.0107639 
870 3 4.16281 1.37675 5.87798 0.00304493 0.00373479 -0.00420561 
872 4 4.72427 1.62623 6.61198 0.000553092 0.00635714 0.00576992 
889 4 5.28888 4.86401 10.2207 -0.00205812 0.0159001 -0.0186715 
60 3 11.1048 2.07782 10.3192 0.00240434 -0.00355599 -0.00610595 
61 4 10.5239 2.80589 10.0983 -0.00463973 -0.00291496 0.013211 
62 4 10.6818 1.65086 11.0642 -0.00949683 -0.0180517 0.0438478 
162 3 7.07198 1.85554 7.63568 -0.00952786 0.000713806 0.00231601 
163 4 7.36591 1.62666 8.51741 -0.0243198 0.0197101 -0.0065235 
164 4 7.69914 1.42538 7.05442 -0.000650646 0.0181245 0.0228073 
413 4 6.2774 3.35827 6.73824 -0.00692911 0.0185048 0.00158309 
645 3 9.89476 3.10265 6.61413 -0.000491267 0.00250931 -0.0031253 
646 4 10.6915 3.62889 6.68178 -0.0257991 -0.00666051 -0.011526 
647 4 9.53548 3.09601 7.50133 -0.0161175 -0.0112811 0.0117603 
856 4 9.34804 1.65991 5.87189 0.0130769 0.0174969 -0.00728962 
891 3 9.83699 4.48745 9.39195 0.0032413 -0.00776698 0.00430118 
892 4 9.45022 5.33631 9.60659 0.00787181 0.0135362 -0.0222511 
893 4 10.7581 4.5744 9.63754 -0.00402352 -0.000409658 0.00911165 
1062 3 8.12133 1.01813 10.3099 0.00857179 0.00252804 0.000605025 
1063 4 8.79729 1.17464 10.9693 -0.00915926 -0.0122136 0.0202678 
1064 4 7.43025 0.552167 10.7806 -0.0098639 0.00167171 0.0132151 
17 4 15.6257 5.44495 7.33159 -0.00981047 0.0321212 0.00731135 
306 3 13.7337 4.14433 8.99953 -0.00102905 0.00213731 -0.00224663 
307 4 14.6871 4.22839 8.98644 -0.003503 0.00757587 0.015717 
308 4 13.5692 3.23759 8.74069 0.00525591 -0.0555686 -0.000692462 
408 3 12.1881 5.41132 10.9509 0.001238 0.00356524 -0.00366983 
410 4 12.7413 4.88983 10.3693 -0.00293336 0.0212908 0.000181063 
669 3 14.8786 1.15539 6.66207 0.00578057 0.0081549 -0.00645717 
670 4 14.4265 0.631624 6.00058 -0.0166099 0.0187743 -0.00459492 
671 4 14.3224 1.0932 7.43864 -0.00138256 0.0180287 0.00591388 
777 3 16.2498 4.66828 9.00844 0.00331923 -0.00770136 -0.00813583 
778 4 16.7645 3.8793 8.8387 0.0316503 -0.0199822 -0.00154635 
779 4 16.8542 5.25622 9.46154 -0.0157873 0.0155904 -0.00818916 
877 4 16.4765 2.22255 6.35611 0.01865 0.0204432 -0.024765 
1005 3 12.3335 4.48556 6.60205 0.00117153 -0.000757616 -2.20883e-06 
1006 4 12.4811 5.26468 6.06592 0.00583964 -0.014017 -0.0125014 
1007 4 12.7124 4.70474 7.45332 0.0196983 -0.01783 0.0173545 
1042 4 16.6272 1.64127 11.2686 -0.0170117 -0.0217734 0.0129677 
1043 4 16.6673 3.14735 11.1203 -0.0133664 0.0062367 0.0285688 
1143 3 13.5054 1.03888 8.95198 -0.00531458 -0.00452714 -0.00657525 
1144 4 12.7115 1.44188 9.30356 -0.00423931 0.00496936 -0.0242309 
1145 4 13.9118 0.611631 9.70598 0.0193917 0.0215728 0.0126666 
223 4 22.3645 2.77426 9.70061 -0.00335458 -0.0245208 -0.0053025 
556 4 21.9874 0.225043 8.03054 -0.012215 -0.00648342 0.00737154 
696 3 18.9449 2.12803 9.86283 -0.000135171 0.00797458 -0.000788511 
697 4 19.3089 2.9834 9.63466 0.0053062 -0.0262951 0.00634197 
698 4 19.1523 1.57107 9.11248 0.000279166 0.0122187 0.0172373 
876 3 17.3015 2.69925 6.44737 0.00403337 0.00528538 -0.00232846 
878 4 17.9712 2.0762 6.16519 0.000631358 -0.0130721 -0.0267804 
936 3 20.4575 4.35963 8.85488 -0.00264862 0.00511324 -0.00166892 
937 4 20.2748 5.29905 8.8361 -0.00640806 0.0179243 -0.00402633 
938 4 21.4036 4.29646 8.72437 -0.0143978 -0.0146932 0.00628027 
1014 3 18.5291 4.58863 11.3331 -0.0035369 -0.00363407 -0.00346649 
1016 4 19.0591 5.2888 10.9521 -0.0157375 0.00348395 0.0049488 
1056 3 19.2236 0.140329 7.87161 0.00586283 -0.00479222 -0.0021944 
1058 4 19.4937 0.350018 6.97757 0.0127684 -0.0228013 0.0276136 
1116 3 17.5323 0.336894 11.2179 -0.00739038 -0.00177955 -0.00136626 
1118 4 18.1665 0.957847 10.8593 -0.0186125 -0.0149844 0.00525166 
1140 3 22.4677 3.43469 5.79287 0.000407421 0.00355497 0.00155277 
1141 4 21.9353 4.22922 5.83138 0.00618966 0.0205321 -0.0136284 
360 3 0.549265 10.2315 11.0039 -0.00177884 -0.00475428 0.00155081 
414 3 1.1725 7.12375 5.86182 0.00309685 0.00332005 0.00404722 
567 3 4.56816 8.31946 11.1886 0.00239295 -0.00335736 0.00352513 
569 4 5.18379 7.72925 10.754 0.00150398 -0.00583821 -0.0165335 
629 4 0.553108 5.71952 8.50092 -0.0156737 0.00700308 -0.0200495 
639 3 2.8262 9.733 9.29879 -0.00186008 0.0114751 -0.000199339 
640 4 3.41483 9.53315 10.0267 0.0199617 -0.00252749 -0.0078186 
641 4 1.96198 9.8096 9.7031 -0.0108125 0.0222759 0.019015 
789 3 4.86117 6.94967 7.17176 -0.000333392 -0.00671138 0.000244691 
790 4 5.44446 6.35956 6.6945 0.0353284 -0.00606597 -0.00324584 
791 4 4.78469 7.71938 6.60792 0.0101261 -0.0074254 -0.0207642 
888 3 5.56113 5.7101 9.86538 0.00869645 -0.00353941 -0.00342985 
890 4 4.93359 5.88951 9.16522 0.0181588 0.0150574 -0.0172478 
927 3 4.378 10.2067 7.12037 -0.00227978 0.00852656 -0.000618273 
928 4 3.87969 9.91241 6.35793 -0.0316911 0.00820332 -0.0221907 
929 4 3.79962 10.039 7.86441 -0.0030097 -0.00470549 -0.00291904 
978 3 2.8225 6.52914 9.19268 -0.0031731 0.000486537 0.000465564 
979 4 3.24257 6.98166 8.46124 0.0201711 0.0229363 0.00608348 
980 4 2.95451 7.11002 9.94193 -0.0144899 -0.00958183 0.00705516 
385 4 6.88198 6.21722 11.0382 0.00536809 0.00392988 0.00619407 
394 4 7.52964 5.70746 6.13605 -0.0124673 0.00921129 -0.0160347 
495 3 7.09071 8.6089 10.0709 -0.0059143 -0.00183793 -0.00589837 
496 4 7.47442 7.90186 10.5896 0.00442424 0.00761691 -0.00944252 
497 4 7.08754 8.27415 9.17416 0.00733747 0.0117807 0.0151983 
529 4 7.81683 10.4595 10.3077 0.0117164 -0.000942182 0.000262647 
774 3 10.9277 8.44142 6.12396 -0.0037731 0.00278526 0.00392544 
776 4 11.0319 9.35095 6.40347 0.0118372 -0.0327058 0.00644858 
792 3 8.3437 10.9838 7.26098 0.00240025 -0.00507378 -0.0034232 
794 4 8.55646 10.7001 8.15009 -0.00492518 -0.016424 0.0117678 
1119 3 8.16664 8.13004 7.66002 -0.00208934 -0.000134781 -0.00345167 
1120 4 9.0091 7.87021 7.28721 -0.00256568 0.00212768 -0.00305792 
1121 4 7.79948 8.74072 7.02088 0.00117602 0.00477572 -0.00287729 
6 3 12.7955 8.56922 10.8459 0.00499313 -0.00178388 0.00157552 
7 4 12.258 7.86783 11.2138 -0.00563813 -0.0287195 0.0158532 
15 3 15.3945 5.95111 6.55276 0.00263045 -0.00564783 0.00354308 
16 4 15.9425 5.58621 5.85796 -0.0149953 0.00222394 0.00434907 
309 3 15.5576 9.71487 11.0776 -0.00247272 0.0022202 -0.000660434 
310 4 15.4425 8.79237 10.8496 -0.00155442 -0.0120861 0.0322983 
311 4 14.9915 10.1857 10.466 0.0299205 -0.0258521 0.0267009 
318 3 11.5491 10.2681 8.68868 -0.00596535 0.00482737 -0.00719072 
319 4 11.6175 9.61447 9.38466 0.00405868 0.0211606 -0.00487192 
320 4 12.4558 10.4974 8.48496 -0.00652516 -0.00305616 0.00347658 
343 4 14.0687 6.97223 6.01062 0.00479424 -0.0227806 0.0120755 
469 4 17.138 10.237 10.3437 -0.00198754 0.012766 -0.00959599 
471 3 15.4314 7.255 10.2172 0.00203555 -0.00274627 -0.00443807 
472 4 14.6049 7.02724 9.79139 -0.00264234 0.0210312 0.0142786 
473 4 15.4256 6.75681 11.0345 -0.00481441 0.0164846 -0.000545061 
651 3 16.3969 8.39938 7.21122 -0.00414231 -0.002669 0.00135658 
652 4 16.217 7.5191 6.88107 -0.0024309 0.0105161 0.00525525 
653 4 15.7485 8.53356 7.90246 -0.0258699 0.0117913 -0.000616934 
775 4 11.8166 8.14888 5.92269 0.00946654 0.00190017 0.00572635 
225 3 20.2483 7.19892 9.47161 -0.00745145 0.00263115 -0.00739907 
226 4 21.0072 7.11023 8.89507 0.00931123 0.0205829 0.00307433 
227 4 19.6187 7.70965 8.96269 0.0021212 0.0278849 0.0199122 
244 4 19.6839 8.39102 11.0865 -0.00518886 -0.0116262 -0.0105244 
245 4 18.984 9.73187 11.1515 -0.0325171 0.00247902 0.0137607 
294 3 21.5862 10.8443 8.43175 0.00131502 0.00112255 0.00184073 
295 4 20.7426 10.6873 8.00771 -0.0188966 0.0185066 -0.0284889 
361 4 22.5477 10.6847 10.5102 -0.0168111 0.0125996 -0.00432371 
362 4 22.8391 9.39088 11.2402 -0.00878745 -0.0163175 0.0146514 
417 3 18.834 9.21375 7.77763 -0.00068207 0.0109814 0.00958823 
418 4 18.067 8.94644 7.27114 -0.00247384 -0.0161403 -0.0182683 
419 4 18.4723 9.66106 8.54272 -0.0129701 -0.0205557 -0.0121958 
468 3 17.9948 10.6083 10.1334 -0.00512053 -0.00291708 0.00199467 
508 4 22.2761 7.24588 10.8573 0.0032244 0.0147069 0.0110476 
627 3 22.4756 6.11558 8.07342 -0.00319833 -0.00358014 0.00381374 
628 4 22.8284 6.51187 7.2767 -0.00447344 0.00603409 -0.00101186 
39 3 4.70572 12.6854 9.19381 0.000294649 0.000190868 0.00209306 
40 4 4.96466 12.6381 8.27352 0.00741963 -0.006711 -0.0147179 
41 4 4.1475 11.9191 9.32576 -0.000736633 0.000760043 -0.00342732 
108 3 0.770648 12.1779 6.43483 -0.0042737 0.0072055 -0.00156922 
109 4 1.50527 11.5657 6.39259 0.00520248 -0.0260248 0.00166038 
110 4 1.1516 13.026 6.2071 0.0105817 0.0101234 -0.00918468 
363 3 3.18767 14.6467 10.4072 0.000187691 -0.00129447 0.00409032 
364 4 3.682 14.0399 9.85628 0.00680455 0.0145992 0.0093764 
365 4 2.7709 15.247 9.789 -0.00175612 -0.0264333 0.0179811 
498 3 1.74522 16.4806 7.79489 0.0042341 -0.00810868 0.00351898 
500 4 1.34833 15.9403 7.11169 -0.00205473 0.0155285 0.0194955 
511 4 5.70265 13.3154 10.4702 0.0106681 0.0108781 -0.0318644 
542 4 2.60728 14.5933 5.84099 0.0174929 0.0133492 0.0193469 
549 3 0.635803 16.3386 10.6217 0.00681162 -0.00337553 -0.00301982 
550 4 0.951336 16.5683 9.74769 -0.00593799 -0.0351151 -0.0302419 
551 4 1.23187 16.7909 11.2186 -0.010518 0.00499326 -0.000368008 
734 4 5.63479 11.6232 6.55001 0.00390212 0.000162465 -0.0114559 
808 4 5.18944 13.8247 5.91535 -0.00402792 -0.00250706 0.00401569 
809 4 4.91041 15.2674 6.27949 0.00588154 0.0105094 0.0204415 
79 4 6.45879 16.7887 7.9843 0.0101138 -0.0071117 -0.00595357 
303 3 10.6162 12.2747 6.15348 0.00255477 0.00287216 -0.000732332 
304 4 10.9334 13.145 5.91232 -0.01143 -0.0139749 -0.0110296 
305 4 11.3565 11.6931 5.98084 0.00813808 -0.00500597 0.0025149 
510 3 6.00105 13.8829 11.1809 -0.000708115 -0.00148349 0.00103866 
512 4 6.85755 14.1984 10.8926 0.0129363 -0.0072606 0.0126282 
528 3 8.07715 11.3522 10.5349 0.000862717 -0.00404519 0.000283734 
530 4 7.4979 11.5945 11.2574 0.0333748 0.000249092 0.0289738 
732 3 6.14613 12.4235 6.66954 0.00368289 -0.00703019 -0.0011363 
733 4 7.05299 12.1524 6.52695 0.0265207 0.0300319 -0.00117582 
781 4 11.1945 13.5866 8.19751 0.0150742 -0.0241909 -0.00805973 
793 4 9.11088 11.4812 6.97771 -0.00422025 -0.00507138 0.00341299 
832 4 7.67828 15.7807 5.83104 0.0149854 0.00858271 -0.015281 
833 4 9.1443 16.1051 6.0245 0.00993408 0.00554605 0.00012962 
960 3 10.952 16.43 6.8251 0.00148246 -0.00223048 -0.00553186 
961 4 11.4591 15.8083 7.34722 0.0283206 0.00119358 -0.0114134 
1083 3 10.1024 12.5756 9.52084 -0.00594999 -0.00209164 0.00583838 
1084 4 9.35864 12.1041 9.89593 0.0120345 -0.0147584 0.00121003 