ITEM: TIMESTEP
0
ITEM: NUMBER OF ATOMS
96
ITEM: BOX BOUNDS pp pp pp
2.9236100000000000e+00 1.2773600000000000e+01
4.0306300000000004e+00 1.3880599999999999e+01
2.1372399999999998e+00 1.1987200000000000e+01
ITEM: ATOMS id type x y z vx vy vz
1 1 8.4932 4.48839 3.30024 0.00191037 0.00938995 -0.0050579
2 2 8.17035 4.7519 2.40104 -0.0328588 -0.0219375 0.00511065
3 2 11.2318 4.51959 7.87064 -0.0446369 -0.00548325 0.00642104
4 1 12.399 9.4598 10.8062 0.00176686 -0.00304818 -0.00475925
5 2 12.3635 9.69391 11.7379 0.00614833 -0.0048424 0.0113814
6 2 3.51205 9.60305 10.5911 0.000230177 0.00976457 0.0155393
7 1 11.0787 7.79556 3.44951 0.00432823 -0.00816195 -0.00458549
8 2 11.0478 7.02136 3.9969 0.000190679 0.00231893 0.000700955
9 2 7.29035 8.15691 7.12923 0.00557655 0.00453284 -0.00899207
10 1 7.05898 9.14605 7.13582 -0.000905311 0.00391473 -0.00105293
11 2 7.68747 9.67181 6.488 -0.0104725 -0.0159193 0.0151066
12 2 5.93265 9.908 8.19239 0.0216124 0.014871 0.000957868
13 1 5.57349 8.25124 2.59264 0.00203262 0.000107022 -0.00283348
14 2 6.55218 8.16472 2.47891 0.0312645 -0.0153411 0.0131694
15 2 5.41382 7.9781 3.53433 0.00732234 -0.0254531 -0.00322886
16 1 8.40796 7.53644 2.32076 0.00358488 0.000254743 0.00257117
17 2 9.31601 7.88026 2.58378 0.00417942 0.0273851 0.0170133
18 2 8.5544 6.63684 11.8839 0.0273888 0.00416873 -0.00963843
19 1 4.70466 4.52893 2.75903 -0.00977633 -0.00415536 0.000658538
20 2 4.93182 4.10426 11.7426 -0.0172094 -0.0192204 0.0287689
21 2 4.35361 7.42575 11.1499 0.003409 -0.00992808 0.00759006
22 1 9.25785 8.86588 9.89696 0.00191424 0.00457211 -0.00135368
23 2 8.8734 8.41553 10.6744 -0.00711961 0.00515671 -0.000933546
24 2 10.1138 8.43595 9.76421 0.00387194 -0.00365411 -0.021331
25 1 12.6702 9.51385 5.0143 -0.0039527 -0.00309609 0.000252595
26 2 3.30086 11.2658 5.46431 -0.00908247 0.00165298 0.00424608
27 2 5.57969 13.4257 4.07669 0.0131479 0.00321876 -0.0116852
28 1 9.81279 6.10053 5.14709 -0.00328892 -0.0020455 -0.00386063
29 2 9.61529 5.32837 4.5827 -0.00332054 -0.0404416 -0.00778471
30 2 8.95062 6.32966 5.55667 -0.0226547 -0.00844753 -0.030414
31 1 3.46188 12.1853 5.74124 0.00235933 0.00688324 0.00245001
32 2 12.206 13.7842 5.99682 -0.0020369 0.00753292 0.0182842
33 2 4.3067 12.4723 5.4177 -0.0201821 -0.0144189 0.0242694
34 1 8.0432 5.35864 10.4363 0.00136784 0.00288797 9.90434e-05
35 2 7.07516 5.24469 10.3321 0.00164042 0.0167334 -0.0122437
36 2 8.4414 4.56476 10.1491 -0.0244933 -0.0360542 0.0121866
37 1 7.42006 10.9334 10.4976 -0.0023735 -0.00552174 0.00666092
38 2 7.77464 11.6055 9.7829 -0.0232633 0.0229005 -0.0018344
39 2 7.9385 10.0702 10.4024 -0.0195569 -0.018756 0.00918222
40 1 12.0428 4.71204 6.45473 0.00702673 -0.0014357 0.000371779
41 2 5.96861 11.8754 3.96236 0.0160592 -0.00813269 0.0125968
42 2 11.3582 5.23406 5.97742 -0.00489608 -0.0308787 0.000975581
43 1 6.01518 12.7672 4.57465 -0.00469011 -0.00237107 -0.00243066
44 2 11.2379 8.5606 4.0599 0.0416167 -0.00102448 -0.0060452
45 2 7.80772 13.799 3.6102 0.0235156 0.0194456 0.000246014
46 1 8.95011 12.7418 9.11653 0.00450027 -0.000595605 0.000246758
47 2 8.65507 12.5973 8.19508 0.00339318 -0.000389281 -0.00283921
48 2 9.91475 12.4701 9.07655 0.0299523 -0.00194948 -0.0107403
49 1 11.4211 7.52557 8.69722 -0.0028167 -0.00255102 -0.000741844
50 2 11.1622 6.6387 8.5192 -0.00773027 -0.0109088 0.00351554
51 2 12.1002 7.61099 9.32514 0.00213653 0.0211494 -0.00428711
52 1 9.1328 10.1619 5.85623 0.0157995 0.00454896 0.00501928
53 2 10.0443 9.95874 6.4332 -0.00959724 0.0174561 0.00362743
54 2 8.94172 11.1197 5.78333 0.0257959 -0.0162715 -0.00304666
55 1 5.6263 10.925 2.6883 -0.00130974 -0.00105466 -0.000841481
56 2 5.49247 9.9501 2.81737 0.0252479 0.0547712 -0.0229032
57 2 6.3779 11.0339 11.9306 0.00391169 -0.00309588 -0.00900707
58 1 5.36743 10.1824 9.12741 0.000375274 0.00159894 -0.00185009
59 2 3.25563 12.3241 8.88199 -0.0117721 0.00936596 0.0014403
60 2 6.17549 10.517 9.83051 0.0168632 -0.0397648 0.00591098
61 1 7.5114 6.56274 7.24653 0.00587359 0.000994186 -0.0043679
62 2 7.24026 6.23527 8.10267 -0.0117486 0.0188105 -0.0126559
63 2 6.75789 6.12613 6.75301 0.0178282 -0.0169154 0.0134254
64 1 4.2146 12.3699 8.31516 -0.0072574 0.00342029 0.00644621
65 2 3.89143 12.266 7.42224 0.0128854 -0.0280374 0.0110276
66 2 4.05945 5.43668 6.86861 -0.00803406 0.00513169 0.00133596
67 1 11.7755 11.5155 9.12515 -0.00722837 -0.00251241 -0.00143467
68 2 11.7009 10.9527 8.27105 -0.0327242 -0.0179033 -0.00837017
69 2 12.0415 10.8953 9.90298 -0.000419166 0.0250615 0.00866838
70 1 10.1981 12.4235 2.20572 0.000898606 0.00192575 -0.0012357
71 2 9.48436 13.0452 2.58728 0.0148656 0.000887894 0.00717891
72 2 9.86313 12.115 11.2495 -0.0125111 -0.0231702 0.0130719
73 1 11.4679 9.89482 7.16876 -0.00349517 -0.00255426 -0.00166267
74 2 11.4438 9.06839 7.62757 0.0173591 -0.00873855 -0.0024791
75 2 12.1689 9.62718 5.97882 -0.00232015 0.0192711 -0.0188354
76 1 11.9726 4.72499 11.7352 0.00395518 0.00227086 0.00392352
77 2 11.791 4.9927 10.8409 -0.0155245 -0.0111563 0.00711552
78 2 3.71244 4.48059 2.80841 0.000667391 -0.0106868 -0.0104688
79 1 3.91266 6.74665 10.6565 -0.00757651 -0.00631602 0.0012688
80 2 3.78671 6.07128 11.3557 0.00139431 -0.0155185 0.0154161
81 2 4.9259 11.1746 8.9221 -0.0173229 0.0330219 0.0169791
82 1 5.51208 4.60867 9.51801 -0.000506942 0.00894543 -0.00269485
83 2 4.87352 13.7623 9.2559 -0.00781184 0.0161338 0.0110942
84 2 4.93563 5.28836 9.90699 -0.00753736 0.00499416 0.0161162
85 1 10.893 4.87991 8.78618 -0.00713858 -0.00208456 -0.00558639
86 2 9.96408 4.66537 8.73072 -0.0138297 0.00712128 0.0428615
87 2 11.2867 4.10984 11.9443 0.00306277 0.0035345 0.0196678
88 1 8.28739 12.8305 6.11353 0.00492262 -0.000790624 0.000352611
89 2 7.54316 12.8052 5.49736 -0.00343257 -0.017721 -0.00200436
90 2 8.78343 13.6952 5.99485 -0.0154092 -0.0187779 -0.0089796
91 1 5.02953 8.04779 5.52547 0.00337238 0.00640591 -0.00167115
92 2 3.66924 9.08756 5.19048 -0.0278166 0.00494556 0.00736592
93 2 5.70045 8.52856 6.09934 -0.0319607 -0.013748 0.038515
94 1 4.8828 5.74198 7.26002 0.00221183 -0.00208984 0.00222681
95 2 5.09724 5.09689 7.97127 -0.00894057 0.0187506 0.0294692
96 2 4.92153 7.3009 6.20584 0.0122953 0.0118162 -0.00121249
ITEM: TIMESTEP
1
ITEM: NUMBER OF ATOMS
96
ITEM: BOX BOUNDS pp pp pp
2.9236100000000000e+00 1.2773600000000000e+01
4.0306300000000004e+00 1.3880599999999999e+01
2.1372399999999998e+00 1.1987200000000000e+01
ITEM: ATOMS id type x y z vx vy vz
1 1 8.49421 4.49311 3.29762 0.00215224 0.00950252 -0.00543729
2 2 8.15418 4.74117 2.40392 -0.0317069 -0.0207351 0.00604356
3 2 11.2098 4.51739 7.87516 -0.0432026 -0.00352237 0.0110115
4 1 12.4 9.45835 10.8038 0.00214213 -0.00273904 -0.00481717
5 2 12.3666 9.69127 11.7433 0.00619702 -0.00588618 0.00971121
6 2 3.51088 9.60752 10.5993 -0.004771 0.00806962 0.0169827
7 1 11.0809 7.79158 3.44719 0.00430155 -0.00772757 -0.00469349
8 2 11.0475 7.02204 3.99791 -0.00135465 0.000205954 0.00339654
9 2 7.29359 8.15967 7.12477 0.0073049 0.00628934 -0.0087626
10 1 7.05847 9.14813 7.13527 -0.00114486 0.0043936 -0.00109728
11 2 7.68245 9.66274 6.49638 -0.00932171 -0.0197874 0.0179599
12 2 5.94284 9.91604 8.19479 0.0187766 0.017282 0.00853415
13 1 5.57454 8.25129 2.59128 0.00225788 4.76112e-05 -0.00257668
14 2 6.56715 8.1568 2.48566 0.0274916 -0.016158 0.013738
15 2 5.41766 7.96565 3.53201 0.00788992 -0.0241334 -0.00636227
16 1 8.40981 7.53667 2.32207 0.00385405 0.000656167 0.00266823
17 2 9.3173 7.89306 2.59245 0.00068312 0.0235395 0.0175027
18 2 8.56809 6.63845 11.8788 0.0273587 0.002478 -0.0105014
19 1 4.69975 4.52682 2.75932 -0.0098542 -0.00427479 0.000518986
20 2 4.92282 4.09528 11.758 -0.0183895 -0.0170707 0.0321042
21 2 4.35574 7.42164 11.1538 0.00501358 -0.00666647 0.00768256
22 1 9.25878 8.86819 9.8963 0.00181215 0.00464962 -0.00128013
23 2 8.86951 8.41775 10.6742 -0.00814855 0.00374036 -0.000134391
24 2 10.1162 8.43417 9.753 0.00528363 -0.00341149 -0.023298
25 1 12.6682 9.51235 5.01439 -0.00414462 -0.00287867 6.87141e-05
26 2 3.29638 11.266 5.46605 -0.00881051 -0.000781454 0.00277672
27 2 5.58531 13.4289 4.06958 0.00944937 0.00911442 -0.0166913
28 1 9.81113 6.09947 5.1452 -0.00337914 -0.00226493 -0.00373975
29 2 9.61333 5.30871 4.57885 -0.00415805 -0.0371253 -0.00693588
30 2 8.94004 6.32527 5.54127 -0.0193989 -0.00906394 -0.0311714
31 1 3.46298 12.1888 5.7425 0.00195473 0.00694018 0.00259481
32 2 12.2052 13.7858 6.00466 -0.000981241 -0.00158637 0.0128581
33 2 4.29792 12.465 5.42906 -0.0137896 -0.0143836 0.0207156
34 1 8.04385 5.36017 10.4364 0.00125418 0.00316115 0.000324654
35 2 7.07647 5.25286 10.3257 0.00360283 0.0160975 -0.013082
36 2 8.42948 4.54543 10.1544 -0.0234392 -0.0403877 0.00947742
37 1 7.41903 10.9307 10.5009 -0.00176958 -0.00524642 0.00666368
38 2 7.76351 11.6161 9.78278 -0.0211831 0.0190341 0.00165113
39 2 7.92898 10.0616 10.4064 -0.0183415 -0.0152987 0.00680133
40 1 12.0463 4.7115 6.45497 0.00701674 -0.000716296 0.00061798
41 2 5.97665 11.873 3.96971 0.015968 -0.00135312 0.0167109
42 2 11.3557 5.21836 5.9776 -0.00524944 -0.0316152 -0.00031314
43 1 6.01287 12.7658 4.57343 -0.00452183 -0.00316453 -0.00245656
44 2 11.2591 8.55934 4.0565 0.0430793 -0.00419817 -0.00775536
45 2 7.81809 13.8078 3.61124 0.0174989 0.0150775 0.00444921
46 1 8.9524 12.7415 9.11662 0.00471675 -0.000786824 9.88559e-05
47 2 8.65703 12.5973 8.19395 0.00444181 0.000581208 -0.00155648
48 2 9.92846 12.4693 9.07129 0.0241231 -0.00102116 -0.0101925
49 1 11.4196 7.52449 8.69676 -0.0031028 -0.00179713 -0.00109866
50 2 11.1584 6.63083 8.52124 -0.00738295 -0.0200534 0.00483988
51 2 12.1027 7.62088 9.32442 0.00742265 0.018273 0.00115318
52 1 9.14077 10.1641 5.85877 0.0160282 0.0043174 0.00510963
53 2 10.0384 9.9687 6.43448 -0.0132934 0.0219962 0.00180951
54 2 8.95536 11.1115 5.78249 0.0284591 -0.0157218 -0.000439806
55 1 5.6256 10.9245 2.68791 -0.00145128 -0.00070152 -0.000736493
56 2 5.50515 9.97676 2.80593 0.0248956 0.0497752 -0.022281
57 2 6.37993 11.0323 11.9262 0.00419532 -0.00284646 -0.00852379
58 1 5.36761 10.1831 9.12636 0.000360492 0.00106819 -0.00234962
59 2 3.25066 12.3282 8.88225 -0.00829996 0.00684209 -0.000433251
60 2 6.18365 10.4966 9.83311 0.0154299 -0.0417389 0.00455082
61 1 7.51429 6.56308 7.24428 0.00572608 0.000402058 -0.00462202
62 2 7.23486 6.24508 8.0973 -0.00984645 0.0203519 -0.00832134
63 2 6.76752 6.11859 6.75968 0.0203472 -0.0134185 0.0127207
64 1 4.21083 12.3717 8.31855 -0.00779396 0.00386173 0.00711636
65 2 3.89787 12.2514 7.42548 0.0127631 -0.0303992 0.00188816
66 2 4.05498 5.43907 6.86928 -0.00949008 0.00444273 0.00159344
67 1 11.7719 11.5143 9.12458 -0.00707407 -0.00211605 -0.000867228
68 2 11.6848 10.9432 8.26675 -0.0317329 -0.019996 -0.00846743
69 2 12.0408 10.9077 9.90625 -0.00229778 0.024165 0.00434328
70 1 10.1985 12.4245 2.20522 0.000804635 0.00220922 -0.0007682
71 2 9.49273 13.0448 2.59041 0.0183638 -0.00229291 0.00532113
72 2 9.85622 12.1031 11.2547 -0.0151824 -0.0243012 0.00808054
73 1 11.466 9.89351 7.16785 -0.00395488 -0.00269421 -0.00193069
74 2 11.4525 9.06379 7.62644 0.0174706 -0.00946022 -0.00216328
75 2 12.168 9.63676 5.96929 -0.00160501 0.0190426 -0.0189324
76 1 11.9746 4.72618 11.7372 0.00421378 0.00246442 0.00401701
77 2 11.7831 4.98732 10.8436 -0.0161816 -0.0103367 0.00376617
78 2 3.71374 4.47524 2.80279 0.00384509 -0.0106668 -0.0117008
79 1 3.90886 6.74341 10.6571 -0.00761012 -0.00663394 0.00137339
80 2 3.78708 6.06364 11.3628 6.92299e-05 -0.0147174 0.0126092
81 2 4.91723 11.1907 8.92981 -0.0169161 0.031 0.0140298
82 1 5.51182 4.61312 9.51672 -0.000567784 0.00888996 -0.00244318
83 2 4.86988 13.7697 9.26153 -0.00671053 0.0135221 0.0114078
84 2 4.93177 5.29167 9.91536 -0.00761956 0.00811149 0.0172975
85 1 10.8894 4.87883 8.78331 -0.00711332 -0.00221263 -0.00583726
86 2 9.95658 4.66894 8.75295 -0.0160941 0.00712647 0.0459343
87 2 11.2873 4.11044 11.9545 -0.000469325 -0.000918709 0.0209417
88 1 8.28997 12.8301 6.11377 0.00533496 -0.000707393 0.000586088
89 2 7.54115 12.7969 5.49603 -0.00440468 -0.0154798 -0.00311678
90 2 8.77455 13.6845 5.99003 -0.0196432 -0.0230389 -0.0103861
91 1 5.03131 8.05092 5.52483 0.00373227 0.00611287 -0.000906746
92 2 3.65581 9.08945 5.19442 -0.0250269 0.00218459 0.00847166
93 2 5.68423 8.52283 6.11702 -0.0325888 -0.00861552 0.0321262
94 1 4.88389 5.74098 7.26105 0.00214856 -0.00191544 0.00190211
95 2 5.09298 5.1061 7.98604 -0.00824094 0.0181817 0.0293574
96 2 4.92652 7.30681 6.20339 0.00739353 0.0113632 -0.00864601
ITEM: TIMESTEP
2
ITEM: NUMBER OF ATOMS
96
ITEM: BOX BOUNDS pp pp pp
2.9236100000000000e+00 1.2773600000000000e+01
4.0306300000000004e+00 1.3880599999999999e+01
2.1372399999999998e+00 1.1987200000000000e+01
ITEM: ATOMS id type x y z vx vy vz
1 1 8.49535 4.49789 3.2948 0.00242014 0.00963717 -0.00581362
2 2 8.13864 4.73116 2.40708 -0.0303445 -0.0190471 0.00627974
3 2 11.1886 4.51607 7.88165 -0.041455 -0.00206949 0.0141652
4 1 12.4011 9.45706 10.8014 0.00250193 -0.00240994 -0.00477927
5 2 12.3697 9.68802 11.7476 0.00597694 -0.00725445 0.00704845
6 2 3.50728 9.61112 10.6081 -0.0092603 0.00635365 0.0179395
7 1 11.083 7.78783 3.44482 0.00428744 -0.00725916 -0.00477871
8 2 11.0464 7.02157 4.0003 -0.00298898 -0.00215695 0.0061299
9 2 7.29765 8.1632 7.12047 0.00881179 0.00760007 -0.00834327
10 1 7.05784 9.15044 7.13472 -0.00139399 0.00481821 -0.00107988
11 2 7.67815 9.65202 6.50596 -0.00758857 -0.0224459 0.0198405
12 2 5.95143 9.92528 8.20092 0.0153031 0.019665 0.0158617
13 1 5.57575 8.25129 2.59006 0.00262547 -8.88116e-05 -0.00229382
14 2 6.57967 8.14856 2.49265 0.0217133 -0.0166108 0.0140943
15 2 5.42171 7.95397 3.52797 0.00812566 -0.0224271 -0.00995568
16 1 8.41181 7.5371 2.32343 0.00415963 0.00105469 0.00275814
17 2 9.31669 7.9038 2.60128 -0.0032939 0.0192546 0.017721
18 2 8.58176 6.63932 11.8734 0.02727 0.00126919 -0.0111671
19 1 4.69481 4.52466 2.75955 -0.00987776 -0.00434761 0.000458579
20 2 4.91343 4.08719 11.7747 -0.0186636 -0.0157643 0.0336483
21 2 4.35862 7.41908 11.1576 0.00633059 -0.003867 0.00735451
22 1 9.25966 8.87053 9.89568 0.00172623 0.00470602 -0.00120046
23 2 8.86525 8.41927 10.6743 -0.00854854 0.00234768 0.000246867
24 2 10.1191 8.43254 9.74091 0.00580675 -0.0030296 -0.0248266
25 1 12.6661 9.51097 5.01437 -0.00440445 -0.0026208 -0.000179686
26 2 3.29205 11.265 5.46709 -0.00843642 -0.00259394 0.00148783
27 2 5.58914 13.4348 4.06 0.00609399 0.0140686 -0.0214024
28 1 9.80941 6.09827 5.14335 -0.00353863 -0.00261277 -0.00370519
29 2 9.61113 5.29124 4.57576 -0.00429548 -0.0318699 -0.0048604
30 2 8.93122 6.3206 5.5255 -0.015715 -0.00953517 -0.0318632
31 1 3.46383 12.1922 5.74383 0.00141968 0.00690698 0.00277965
32 2 12.205 13.7826 6.00968 0.000395851 -0.0113359 0.00727978
33 2 4.29291 12.4579 5.43842 -0.00542485 -0.0136335 0.0164052
34 1 8.04445 5.3618 10.4366 0.00118391 0.00329758 0.000487255
35 2 7.07876 5.26079 10.319 0.00551075 0.0157863 -0.013745
36 2 8.41796 4.52437 10.1586 -0.0229369 -0.0428077 0.00748575
37 1 7.41829 10.9282 10.5043 -0.00117965 -0.00494299 0.00664648
38 2 7.75346 11.6245 9.78455 -0.018964 0.0142038 0.00559113
39 2 7.92016 10.0549 10.4092 -0.0167189 -0.0113615 0.00417096
40 1 12.0498 4.71132 6.45535 0.00700053 1.53194e-05 0.000885473
41 2 5.98458 11.874 3.97907 0.0156009 0.0054757 0.0204909
42 2 11.353 5.20244 5.97711 -0.00589129 -0.0317872 -0.00167135
43 1 6.01066 12.764 4.57219 -0.00434235 -0.0038949 -0.0024643
44 2 11.281 8.5564 4.05214 0.0443188 -0.00765606 -0.00980607
45 2 7.82522 13.8141 3.61465 0.0108656 0.00991535 0.00955668
46 1 8.95483 12.741 9.11663 0.00500031 -0.0010042 -6.58653e-05
47 2 8.65951 12.5979 8.19352 0.00546968 0.00160305 -9.68747e-05
48 2 9.93887 12.4691 9.06636 0.0170622 0.0002386 -0.00943394
49 1 11.418 7.52377 8.69612 -0.00337529 -0.00111092 -0.00143244
50 2 11.1548 6.61865 8.52404 -0.00648501 -0.0278466 0.00660411
51 2 12.1076 7.62926 9.32629 0.0118562 0.0151043 0.00587846
52 1 9.14883 10.1662 5.86134 0.0161827 0.00401256 0.00514288
53 2 10.031 9.98074 6.43501 -0.0157411 0.0256837 0.000682539
54 2 8.97018 11.104 5.78289 0.0304327 -0.013381 0.00184026
55 1 5.62485 10.9243 2.68756 -0.00152663 -0.000120344 -0.000700096
56 2 5.51737 9.99988 2.79509 0.02344 0.0407514 -0.0206059
57 2 6.3821 11.0311 11.9221 0.00440705 -0.001906 -0.00800113
58 1 5.36779 10.1835 9.12506 0.000370494 0.000559322 -0.00285826
59 2 3.24733 12.3309 8.88156 -0.0052338 0.0042879 -0.00239842
60 2 6.19092 10.4753 9.83506 0.0132835 -0.043182 0.00327008
61 1 7.51713 6.56314 7.24191 0.00563024 -0.000139764 -0.004862
62 2 7.23041 6.25562 8.09435 -0.00787284 0.0217976 -0.00304694
63 2 6.77824 6.11271 6.76573 0.0220103 -0.0103938 0.010832
64 1 4.20681 12.3738 8.32228 -0.00829943 0.00431364 0.00777069
65 2 3.90419 12.2356 7.42413 0.0124917 -0.0329092 -0.00701643
66 2 4.04996 5.44112 6.8702 -0.0102467 0.00381529 0.00233389
67 1 11.7684 11.5134 9.12428 -0.006934 -0.00169956 -0.000348256
68 2 11.6692 10.9327 8.26258 -0.0305662 -0.0220056 -0.00791533
69 2 12.0392 10.9195 9.90732 -0.00415435 0.0227499 3.06234e-05
70 1 10.1989 12.4257 2.20495 0.000754098 0.00244651 -0.000344877
71 2 9.50272 13.0429 2.5926 0.0211904 -0.00512487 0.00349175
72 2 9.84795 12.0907 11.2576 -0.0178147 -0.0251308 0.00370104
73 1 11.4639 9.89213 7.16683 -0.00435654 -0.00284508 -0.00213684
74 2 11.4613 9.05893 7.62541 0.0174702 -0.00975794 -0.00207859
75 2 12.1673 9.64622 5.95989 -0.0013527 0.018784 -0.0183801
76 1 11.9768 4.72745 11.7392 0.00440882 0.0026207 0.00409872
77 2 11.7748 4.98236 10.8447 -0.0167305 -0.00949561 0.000562732
78 2 3.71629 4.46992 2.79671 0.00552692 -0.0105589 -0.0122695
79 1 3.90505 6.74002 10.6579 -0.00761518 -0.00695753 0.00156064
80 2 3.78678 6.05656 11.3683 -0.00126868 -0.0132885 0.00901867
81 2 4.90898 11.2056 8.93613 -0.0157326 0.028212 0.0113771
82 1 5.51151 4.61756 9.51557 -0.000663701 0.00886686 -0.00214926
83 2 4.86681 13.7758 9.26731 -0.00554615 0.0107202 0.0117315
84 2 4.92801 5.29647 9.92429 -0.00715154 0.0108397 0.0182547
85 1 10.8859 4.8777 8.78034 -0.00712242 -0.00229404 -0.00598355
86 2 9.94799 4.6725 8.77665 -0.018038 0.00708005 0.0486939
87 2 11.2862 4.10892 11.9652 -0.00333296 -0.00479635 0.0220924
88 1 8.29272 12.8298 6.11412 0.00564366 -0.000722628 0.000799429
89 2 7.53876 12.7897 5.49424 -0.00497385 -0.01331 -0.00378878
90 2 8.76379 13.6722 5.98446 -0.0227865 -0.0254773 -0.0119476
91 1 5.03326 8.0539 5.52456 0.00405548 0.00581028 -0.000167591
92 2 3.64421 9.08974 5.19895 -0.0206731 -0.00132209 0.00970344
93 2 5.66786 8.51994 6.13147 -0.0324938 -0.00244272 0.0257688
94 1 4.88495 5.74006 7.26192 0.00204617 -0.0017535 0.00156013
95 2 5.089 5.11507 8.00063 -0.00782617 0.0177962 0.0287124
96 2 4.92892 7.31226 6.19719 0.00205828 0.00988014 -0.0160053
ITEM: TIMESTEP
3
ITEM: NUMBER OF ATOMS
96
ITEM: BOX BOUNDS pp pp pp
2.9236100000000000e+00 1.2773600000000000e+01
4.0306300000000004e+00 1.3880599999999999e+01
2.1372399999999998e+00 1.1987200000000000e+01
ITEM: ATOMS id type x y z vx vy vz
1 1 8.49663 4.50275 3.2918 0.00267173 0.00976301 -0.00617019
2 2 8.12383 4.72212 2.4102 -0.0288122 -0.0169742 0.00593013
3 2 11.1683 4.51532 7.88932 -0.0394469 -0.00125381 0.0156408
4 1 12.4025 9.45594 10.799 0.00282226 -0.00207427 -0.00465595
5 2 12.3726 9.68402 11.7504 0.00548233 -0.00887154 0.00364638
6 2 3.50162 9.61387 10.6172 -0.0128417 0.0046977 0.0183475
7 1 11.0851 7.78432 3.44241 0.00428521 -0.00678635 -0.00483523
8 2 11.0445 7.01988 4.00404 -0.00470415 -0.00449496 0.00868702
9 2 7.30241 8.16727 7.11643 0.0100451 0.00840099 -0.00768946
10 1 7.05707 9.15295 7.13419 -0.00165823 0.00517417 -0.00100181
11 2 7.67487 9.6403 6.51622 -0.00518635 -0.0237301 0.0206391
12 2 5.95814 9.93571 8.21065 0.0113635 0.0219579 0.0227006
13 1 5.57717 8.2512 2.58899 0.00310404 -0.000288005 -0.00200069
14 2 6.58886 8.14019 2.49975 0.014476 -0.0167056 0.0141501
15 2 5.42579 7.94322 3.52206 0.00795933 -0.0204627 -0.0136527
16 1 8.41397 7.53772 2.32483 0.00448645 0.00143329 0.00283175
17 2 9.31401 7.91231 2.61017 -0.00744337 0.0146937 0.0177529
18 2 8.59536 6.63972 11.8677 0.0270584 0.000648728 -0.0115937
19 1 4.68987 4.52247 2.75977 -0.00983547 -0.00436558 0.000490612
20 2 4.90415 4.07952 11.7917 -0.0179329 -0.0154651 0.0332013
21 2 4.36207 7.41778 11.1611 0.00723778 -0.00173591 0.00654259
22 1 9.26051 8.87289 9.8951 0.00165813 0.00473679 -0.00111278
23 2 8.86096 8.4201 10.6744 -0.00828207 0.00101883 0.000144486
24 2 10.122 8.43114 9.72817 0.00541142 -0.00249936 -0.0259019
25 1 12.6638 9.50973 5.01421 -0.0047039 -0.00233394 -0.000483934
26 2 3.28794 11.2634 5.46753 -0.00794224 -0.00364253 0.000432149
27 2 5.59141 13.4429 4.04818 0.00332914 0.0176837 -0.0254766
28 1 9.80759 6.09686 5.1415 -0.00374362 -0.00306763 -0.00374408
29 2 9.60903 5.27684 4.57399 -0.00382769 -0.0251178 -0.0019017
30 2 8.92432 6.31573 5.50941 -0.0118763 -0.00976234 -0.0323497
31 1 3.4644 12.1957 5.74527 0.000799546 0.00679091 0.00298727
32 2 12.2056 13.7745 6.01194 0.00190977 -0.0207282 0.00212998
33 2 4.2925 12.4514 5.44546 0.00421797 -0.0124213 0.0116195
34 1 8.04503 5.36347 10.4369 0.00116585 0.00327904 0.000586806
35 2 7.08198 5.26864 10.312 0.00724659 0.0157997 -0.0142487
36 2 8.40654 4.50263 10.1619 -0.0230089 -0.0430402 0.00626142
37 1 7.41785 10.9258 10.5076 -0.000611844 -0.00461855 0.0066174
38 2 7.74454 11.6303 9.78838 -0.016651 0.00868102 0.0097761
39 2 7.91226 10.0502 10.4106 -0.0146412 -0.00718852 0.00139171
40 1 12.0533 4.71151 6.45586 0.0069836 0.000703458 0.00113063
41 2 5.99225 11.8785 3.9902 0.0149769 0.0118641 0.0236388
42 2 11.3498 5.18657 5.97593 -0.00668907 -0.0315187 -0.00299312
43 1 6.00853 12.7619 4.57096 -0.0041745 -0.004505 -0.00245914
44 2 11.3034 8.55169 4.04669 0.0453477 -0.0112088 -0.0120683
45 2 7.82896 13.8177 3.62079 0.00431792 0.00455562 0.0151506
46 1 8.9574 12.7405 9.11655 0.00532699 -0.00123318 -0.000236865
47 2 8.6625 12.5989 8.19385 0.00640287 0.00264538 0.00137167
48 2 9.94552 12.4695 9.06186 0.0093034 0.00169219 -0.00848362
49 1 11.4162 7.52338 8.69533 -0.00361582 -0.000525557 -0.0017213
50 2 11.1519 6.60298 8.52784 -0.00493412 -0.0337515 0.00886223
51 2 12.1145 7.63598 9.3303 0.0150051 0.0116143 0.00949945
52 1 9.15695 10.1681 5.86391 0.0162583 0.00364845 0.00511374
53 2 10.0227 9.99438 6.43517 -0.0167726 0.0283768 0.000388548
54 2 8.9858 11.0981 5.78433 0.031623 -0.00929941 0.00370082
55 1 5.62407 10.9244 2.68721 -0.0015375 0.00065172 -0.000727759
56 2 5.52859 10.0175 2.78533 0.0210326 0.0282407 -0.0180536
57 2 6.38434 11.0304 11.9182 0.00444113 -0.00030672 -0.00736673
58 1 5.36798 10.1836 9.1235 0.000398306 7.06945e-05 -0.00335676
59 2 3.24542 12.3324 8.87986 -0.00264852 0.00177224 -0.00442827
60 2 6.19694 10.4534 9.83638 0.0103739 -0.044038 0.00201984
61 1 7.51992 6.56294 7.23942 0.00559249 -0.000623098 -0.00506603
62 2 7.22698 6.26687 8.09425 -0.00577092 0.0232335 0.00291294
63 2 6.78953 6.1082 6.77051 0.0226213 -0.00800673 0.00768303
64 1 4.20253 12.376 8.32632 -0.00876696 0.00476004 0.00836315
65 2 3.91036 12.2185 7.41847 0.0122007 -0.0354073 -0.0150059
66 2 4.04474 5.44288 6.87162 -0.0102867 0.00326313 0.0035551
67 1 11.765 11.5126 9.12423 -0.00681843 -0.00127015 0.000109588
68 2 11.6542 10.9212 8.25884 -0.0292434 -0.0238977 -0.00681383
69 2 12.0367 10.9304 9.90628 -0.00592637 0.0208157 -0.00404068
70 1 10.1993 12.427 2.20488 0.000750867 0.0026154 -4.16614e-07
71 2 9.51392 13.0397 2.5939 0.0230965 -0.00739324 0.00185388
72 2 9.8384 12.078 11.2584 -0.0202009 -0.0254771 0.000325428
73 1 11.4617 9.89066 7.16572 -0.00469734 -0.00300692 -0.00227526
74 2 11.47 9.05403 7.62436 0.0173503 -0.00961658 -0.00222976
75 2 12.1666 9.65555 5.95091 -0.00154629 0.0185085 -0.017238
76 1 11.9791 4.7288 11.7413 0.00451291 0.00272672 0.00415594
77 2 11.7663 4.97782 10.8442 -0.0171145 -0.00875525 -0.00214175
78 2 3.71926 4.46468 2.79052 0.00548454 -0.0103659 -0.0121382
79 1 3.90125 6.73646 10.6587 -0.00758375 -0.00726595 0.00181734
80 2 3.78581 6.05035 11.3718 -0.002641 -0.0113725 0.00488938
81 2 4.9015 11.2189 8.94119 -0.0138504 0.0248762 0.00901384
82 1 5.51115 4.62199 9.51457 -0.000800404 0.00888076 -0.00181786
83 2 4.86434 13.7805 9.27326 -0.00431523 0.00777509 0.0121846
84 2 4.92462 5.30251 9.93362 -0.00611007 0.0130292 0.0188878
85 1 10.8823 4.87654 8.77733 -0.00717755 -0.0023185 -0.00600377
86 2 9.93854 4.67602 8.80165 -0.0194164 0.00700439 0.0510418
87 2 11.284 4.10565 11.9765 -0.00519615 -0.00780625 0.0229511
88 1 8.29561 12.8294 6.11457 0.00583347 -0.000853103 0.000989902
89 2 7.53618 12.7836 5.49224 -0.00509255 -0.011283 -0.00394264
90 2 8.75176 13.6591 5.97808 -0.0246111 -0.0257632 -0.0136878
91 1 5.03537 8.05673 5.52466 0.00433248 0.00551855 0.000506638
92 2 3.63514 9.08812 5.20412 -0.0151841 -0.00537869 0.0110092
93 2 5.65173 8.52039 6.14279 -0.0315955 0.00468167 0.0197852
94 1 4.88594 5.73923 7.26261 0.00190598 -0.0016102 0.00120902
95 2 5.08515 5.1239 8.01475 -0.00767988 0.0177211 0.0274191
96 2 4.92857 7.31669 6.18739 -0.0035922 0.00716362 -0.0229033
ITEM: TIMESTEP
4
ITEM: NUMBER OF ATOMS
96
ITEM: BOX BOUNDS pp pp pp
2.9236100000000000e+00 1.2773600000000000e+01
4.0306300000000004e+00 1.3880599999999999e+01
2.1372399999999998e+00 1.1987200000000000e+01
ITEM: ATOMS id type x y z vx vy vz
1 1 8.49802 4.50766 3.28863 0.00286229 0.00984704 -0.00649061
2 2 8.10983 4.71419 2.41301 -0.0271319 -0.0146393 0.0051814
3 2 11.1492 4.51481 7.89729 -0.0372485 -0.0011534 0.015307
4 1 12.404 9.45499 10.7967 0.00308059 -0.0017455 -0.00446282
5 2 12.3752 9.67915 11.7513 0.00471728 -0.0106496 -0.000193109
6 2 3.49444 9.61582 10.6264 -0.0151544 0.00318361 0.0181729
7 1 11.0873 7.78105 3.43998 0.00429303 -0.00633846 -0.0048581
8 2 11.0417 7.01707 4.00898 -0.00648571 -0.00654 0.0108599
9 2 7.3077 8.1716 7.11278 0.010949 0.00866624 -0.00676201
10 1 7.05618 9.15562 7.13372 -0.00194178 0.00544963 -0.000869749
11 2 7.67296 9.62829 6.5266 -0.00206075 -0.0235492 0.0203165
12 2 5.96279 9.94724 8.22362 0.00715896 0.0240549 0.0286546
13 1 5.57885 8.251 2.58806 0.00365691 -0.000531986 -0.00171514
14 2 6.59415 8.13186 2.5068 0.00641149 -0.0164738 0.0138342
15 2 5.42967 7.9335 3.51432 0.00733024 -0.0183855 -0.0170766
16 1 8.4163 7.53853 2.32626 0.00481828 0.00177716 0.00288086
17 2 9.30925 7.91849 2.61904 -0.0114526 0.0100372 0.0176933
18 2 8.60882 6.63997 11.8618 0.0266708 0.000667786 -0.0117531
19 1 4.68497 4.52029 2.76004 -0.00972275 -0.00432533 0.000619073
20 2 4.8955 4.07172 11.8079 -0.0161712 -0.0162499 0.030739
21 2 4.36586 7.41735 11.1641 0.00765292 -0.000409027 0.00522915
22 1 9.26132 8.87527 9.89457 0.00160706 0.00474069 -0.001017
23 2 8.85697 8.42029 10.6744 -0.00735812 -0.000220909 -0.000455368
24 2 10.1245 8.43004 9.71501 0.00415155 -0.00183793 -0.026536
25 1 12.6614 9.50864 5.01388 -0.0050094 -0.00203319 -0.000831231
26 2 3.28411 11.2614 5.46752 -0.00731717 -0.00384694 -0.000359954
27 2 5.59247 13.4525 4.03452 0.00130633 0.0196955 -0.0286511
28 1 9.80567 6.0952 5.13961 -0.00396758 -0.00360151 -0.00383968
29 2 9.6073 5.26613 4.57386 -0.0028694 -0.0174154 0.00154676
30 2 8.91934 6.31083 5.49315 -0.00818047 -0.00964895 -0.0325003
31 1 3.46463 12.199 5.74682 0.000152077 0.00660545 0.00319938
32 2 12.2069 13.7619 6.01181 0.00338799 -0.0288104 -0.00206274
33 2 4.29713 12.4455 5.45004 0.0142642 -0.0110381 0.00668424
34 1 8.04562 5.36508 10.4372 0.00120318 0.00310118 0.000628542
35 2 7.08601 5.27659 10.3048 0.0086842 0.0161317 -0.0146155
36 2 8.39495 4.48133 10.1648 -0.0235843 -0.0410262 0.00578321
37 1 7.41768 10.9235 10.5109 -7.55991e-05 -0.00428086 0.00658451
38 2 7.73681 11.6332 9.79433 -0.0142781 0.00274663 0.0139895
39 2 7.90552 10.0477 10.4106 -0.0120859 -0.00301001 -0.00145644
40 1 12.0568 4.71203 6.45648 0.00696819 0.00129529 0.00131355
41 2 5.99955 11.8859 4.00271 0.0141301 0.017308 0.0258669
42 2 11.3463 5.17093 5.97411 -0.00748352 -0.0309463 -0.00416552
43 1 6.00648 12.7595 4.56973 -0.00403662 -0.00494548 -0.00244199
44 2 11.3263 8.54519 4.04008 0.046196 -0.0146627 -0.0144035
45 2 7.82954 13.8186 3.6298 -0.00141697 -0.000356253 0.02073
46 1 8.96015 12.7398 9.11639 0.00567131 -0.00146007 -0.000403049
47 2 8.66591 12.6005 8.1949 0.00716932 0.00367782 0.00268018
48 2 9.94818 12.4708 9.05787 0.00139892 0.00319994 -0.00737015
49 1 11.4144 7.52325 8.6944 -0.00381065 -6.31926e-05 -0.0019488
50 2 11.1499 6.5849 8.5329 -0.0027073 -0.0374292 0.0115994
51 2 12.1226 7.64088 9.33579 0.0165938 0.00780781 0.0117705
52 1 9.16509 10.1699 5.86645 0.0162528 0.00324774 0.00502063
53 2 10.0142 10.0091 6.4354 -0.0162944 0.0299909 0.00102746
54 2 9.0018 11.0947 5.78659 0.0319916 -0.00371764 0.00508087
55 1 5.62331 10.925 2.68684 -0.00148963 0.00155314 -0.000811308
56 2 5.5384 10.0281 2.77704 0.0178968 0.0132137 -0.0148613
57 2 6.38654 11.0307 11.9147 0.00417943 0.00186815 -0.00653217
58 1 5.36819 10.1835 9.1217 0.000434851 -0.000397858 -0.00382351
59 2 3.24468 12.3327 8.87713 -0.000594088 -0.000647372 -0.00648601
60 2 6.20129 10.4312 9.83708 0.00682863 -0.0443013 0.000962721
61 1 7.52272 6.56252 7.23684 0.00560662 -0.00104819 -0.00521154
62 2 7.22464 6.27886 8.09726 -0.00350822 0.0247478 0.00897976
63 2 6.80086 6.1047 6.77341 0.0221947 -0.00630069 0.00351373
64 1 4.19804 12.3785 8.33064 -0.00918915 0.00518072 0.00885325
65 2 3.91639 12.2002 7.40912 0.0119879 -0.0376934 -0.0214959
66 2 4.03967 5.44439 6.87376 -0.00967175 0.00278429 0.00520161
67 1 11.7616 11.5121 9.12439 -0.0067367 -0.000834649 0.00049577
68 2 11.6399 10.9088 8.25577 -0.027782 -0.0256281 -0.00526355
69 2 12.0333 10.9403 9.90328 -0.00754967 0.0183692 -0.0076507
70 1 10.1997 12.4283 2.20495 0.000796906 0.00269779 0.000239245
71 2 9.52582 13.0355 2.59446 0.0238824 -0.00890804 0.000563023
72 2 9.82775 12.0652 11.2579 -0.0221654 -0.0251988 -0.00177808
73 1 11.4592 9.88912 7.16455 -0.00497889 -0.00317831 -0.00234441
74 2 11.4786 9.04931 7.62318 0.0171056 -0.00906881 -0.00259957
75 2 12.1657 9.66473 5.94265 -0.00211907 0.0182134 -0.0156171
76 1 11.9813 4.73018 11.7434 0.00450717 0.00277423 0.00417895
77 2 11.7577 4.97361 10.8425 -0.0172761 -0.00820619 -0.00406587
78 2 3.72177 4.45956 2.78457 0.00365457 -0.0100908 -0.0113176
79 1 3.89747 6.73275 10.6597 -0.00751084 -0.00754049 0.00212475
80 2 3.78414 6.04519 11.3732 -0.00406457 -0.00915677 0.0005094