ITEM: TIMESTEP
0
ITEM: NUMBER OF ATOMS
96
ITEM: BOX BOUNDS pp pp pp
2.9236100000000000e+00 1.2773600000000000e+01
4.0306300000000004e+00 1.3880599999999999e+01
2.1372399999999998e+00 1.1987200000000000e+01
ITEM: ATOMS id type x y z vx vy vz
1 1 8.33726 4.13602 3.41681 -0.00197829 -0.00486921 0.00401946
2 2 8.30999 4.56665 2.51126 -0.0308424 -0.0120151 -0.0171138
3 2 11.8102 4.95169 8.32235 -0.0149528 0.00841968 -0.0214839
4 1 12.4134 9.62733 10.9081 0.00277685 0.00390798 0.00448738
5 2 12.3124 9.81176 11.8356 -0.00357021 -0.00308818 -0.0210599
6 2 3.44067 9.24827 10.7835 0.00213646 -0.0027175 0.00783379
7 1 10.7931 8.15721 3.55386 -0.00626412 0.00813469 0.00198733
8 2 10.5892 7.77144 4.41855 -0.00251416 0.0274218 -0.00115383
9 2 7.33387 8.1284 7.33635 0.0126028 -0.0254368 -0.0195492
10 1 6.8642 8.97871 7.23483 0.00103518 -0.00583365 -0.00315188
11 2 7.45293 9.4563 6.54667 -0.0198217 -0.00247758 -0.00542926
12 2 5.59749 9.57038 8.30144 0.000979228 0.00196003 0.0150397
13 1 5.43489 8.22454 2.7932 -0.00120733 -0.00194648 0.00496557
14 2 6.40482 8.14474 2.75077 -0.0298833 -0.0107917 0.0186533
15 2 5.18753 7.92281 3.65242 0.0137119 0.0131104 -0.00912932
16 1 8.24287 7.50746 2.2935 -0.00458121 -0.00310644 0.00137635
17 2 9.1206 7.61643 2.75167 -0.00899801 0.0343111 -0.0141303
18 2 8.33765 6.74581 11.5415 0.0131096 0.0248068 0.0253877
19 1 5.06579 4.77342 2.67163 0.00581763 0.00932379 -0.00460777
20 2 5.53589 4.88542 11.6456 0.000907803 -0.0206263 0.00307181
21 2 4.64899 7.15847 11.1421 -0.00341666 -0.0305864 0.00413686
22 1 9.15625 8.73011 9.91811 -0.0006366 -0.00119821 -0.00276079
23 2 9.16954 8.66354 10.889 -0.0120974 0.0281853 0.0097248
24 2 10.0264 8.4911 9.5546 0.000431192 -0.00376739 0.0062387
25 1 2.92389 9.53596 5.06843 -0.00369832 -0.00290806 0.00560414
26 2 3.43427 11.273 5.14518 0.0223895 0.0269515 -0.0189731
27 2 5.49989 13.5586 3.99823 -0.0208181 0.012817 0.0109316
28 1 9.83658 6.19654 5.4427 -0.0047713 0.00259505 0.00555458
29 2 9.21662 5.62645 5.02917 0.0244503 -0.0170674 0.0236416
30 2 9.42636 6.41438 6.22652 -0.0309032 -0.00146603 0.0100916
31 1 3.57132 12.1663 5.52971 0.0077343 0.00472557 -0.00492789
32 2 12.4518 13.8197 6.01688 -0.00118049 -0.00386625 -0.021706
33 2 4.40898 12.4049 5.03329 -0.0321459 0.0179877 -0.000734069
34 1 8.08804 5.29108 10.5116 0.00594469 -0.000173452 0.00133254
35 2 7.40781 4.75733 10.0627 -0.00267993 -0.00436404 -0.0133752
36 2 8.88309 4.94102 10.1269 -0.0165308 -0.0257232 0.00984764
37 1 7.5277 10.9167 10.3263 0.00409285 0.00177457 -0.00101829
38 2 7.82918 11.6694 9.76116 0.00330459 -0.0226922 -0.00165269
39 2 8.31385 10.2066 10.1324 -0.00434603 -0.0372012 -0.00745521
40 1 12.0222 4.76643 6.30434 0.00550929 -0.00258476 -0.000352082
41 2 6.02313 12.0818 3.98126 -0.00521143 -0.000458739 0.0149807
42 2 11.2751 4.96664 5.6499 -0.0101036 -0.00459334 -0.0189688
43 1 5.89926 12.8514 4.60073 -0.00424821 -0.00104961 -0.000630484
44 2 11.7071 8.48477 3.70144 -0.00504625 -0.0197327 -0.00349537
45 2 7.4635 13.6975 3.63057 -0.0111576 -0.0113045 0.0111645
46 1 8.97795 12.9178 8.91524 0.00406998 0.00287712 -0.00452933
47 2 8.5678 12.9549 8.03315 0.0174696 0.0180625 -0.00100003
48 2 9.85285 12.4473 8.75202 0.00413772 0.00971746 -0.0129587
49 1 11.552 7.70252 8.78509 0.00283395 0.00838556 0.00241136
50 2 11.2905 6.76441 8.91566 -0.00610858 0.00747967 -0.00121337
51 2 12.2924 7.65912 9.35743 0.00917919 0.0234597 -0.00140389
52 1 8.94796 10.1847 5.7532 -0.000546388 0.0013029 0.00261751
53 2 9.85851 10.1138 6.242 -0.0142314 -0.0207723 0.00965791
54 2 8.85818 11.1602 5.64506 -0.00483751 0.0331359 0.00358031
55 1 5.58399 10.9799 2.76682 -0.0018208 -0.000561258 0.0021415
56 2 5.50064 9.96301 2.98586 0.0188837 0.0498717 -0.00800404
57 2 6.13892 10.9729 11.7808 0.00492158 -0.00639848 -0.0237463
58 1 5.44644 10.0345 9.12562 -0.00206397 -0.00176255 0.00385675
59 2 3.3662 11.8904 8.29287 -0.016572 -9.88692e-05 -0.00121147
60 2 6.4265 10.3194 9.5647 0.0250182 -0.0249306 -0.0268423
61 1 7.46772 6.4129 7.43057 0.00334212 -0.000175227 0.00800332
62 2 7.62488 6.05884 8.29828 -0.000369556 -0.0024714 -0.0011343
63 2 6.5402 6.20557 7.1375 0.014486 -0.0396521 -0.0106726
64 1 4.34411 12.1472 7.95625 -0.000981895 -0.00662411 -0.0085286
65 2 4.38372 11.9177 6.94471 -0.00505071 0.00187909 0.0257402
66 2 3.76537 5.3871 6.76573 -0.0164069 0.0124776 -0.0227615
67 1 11.9181 11.5707 9.10637 0.00387827 0.00172735 -0.00753315
68 2 11.5979 10.784 8.15349 -0.0244543 0.00958252 0.00451475
69 2 12.1417 10.9875 9.88708 -0.0134096 -0.00596585 -0.0116594
70 1 10.2071 12.4422 2.16011 0.00119854 0.00201004 -0.0025331
71 2 9.67843 12.7673 2.88124 0.00426993 0.00258422 0.0201491
72 2 9.56663 12.4272 11.3039 0.000362016 -0.0182203 -0.00264537
73 1 11.1946 9.97214 7.15947 -0.00610328 -0.00218558 -0.00501639
74 2 11.1257 9.15411 7.59354 -0.0351935 0.0226186 0.0106621
75 2 12.1656 9.71145 5.86432 -0.00407025 0.00442581 0.000265627
76 1 11.9117 4.61756 11.5743 0.00318262 -0.00389567 0.00175268
77 2 11.3937 4.64257 10.7538 -0.01053 -0.00997775 -0.0212909
78 2 4.15188 4.51134 2.3618 0.0261696 0.00582803 -0.00609348
79 1 4.10151 6.89872 10.4019 0.000337388 0.00276635 -0.00891041
80 2 3.38451 6.3835 10.7853 0.0173526 -0.00266097 -0.0165591
81 2 4.93744 11.1673 8.63431 -0.0300916 -0.0125506 -0.0361426
82 1 5.57367 4.39705 9.81321 0.00228159 -0.00257747 0.00716475
83 2 5.20649 13.5381 9.32589 -0.00154995 0.00641413 -0.00550708
84 2 5.05219 5.18345 9.68138 0.00045444 0.00686292 0.024281
85 1 11.1965 4.9685 9.05787 0.00526598 -0.00113834 0.00449416
86 2 10.5637 4.24557 8.91094 0.00468606 0.00937902 0.0492781
87 2 11.4365 13.7944 2.26952 -0.0083112 0.00638822 0.00601166
88 1 8.33734 12.8847 6.27056 0.00260022 -0.00116624 0.00201968
89 2 7.4184 12.8652 5.88342 0.0137739 0.00282945 0.0332287
90 2 8.78447 13.2965 5.51569 -0.0134392 0.0021946 -0.0307139
91 1 5.05651 7.8963 5.50014 -0.00160714 0.00157613 -7.61546e-05
92 2 3.7137 9.16023 5.43335 0.00372277 -0.0219155 0.00273161
93 2 5.68216 8.357 6.11986 0.0024098 -0.0365633 -0.00647194
94 1 4.61824 5.70463 7.05885 -0.00889326 -0.00343386 -0.00232976
95 2 4.98182 4.96152 7.50957 -0.0170192 -0.0170992 0.00545291
96 2 4.7128 7.01558 5.72811 0.0281505 -0.0140797 -0.0321054
ITEM: TIMESTEP
1
ITEM: NUMBER OF ATOMS
96
ITEM: BOX BOUNDS pp pp pp
2.9236100000000000e+00 1.2773600000000000e+01
4.0306300000000004e+00 1.3880599999999999e+01
2.1372399999999998e+00 1.1987200000000000e+01
ITEM: ATOMS id type x y z vx vy vz
1 1 8.33635 4.13364 3.41877 -0.00169574 -0.00464822 0.00380514
2 2 8.29394 4.56001 2.50402 -0.0331279 -0.0146907 -0.0113816
3 2 11.8028 4.95538 8.31081 -0.0149421 0.00619791 -0.0245309
4 1 12.4148 9.62928 10.9103 0.00271845 0.00388253 0.00429408
5 2 12.3111 9.81008 11.8253 -0.00179609 -0.00343192 -0.0192476
6 2 3.44169 9.24703 10.7879 0.0019778 -0.00224039 0.00984638
7 1 10.79 8.16128 3.55487 -0.00606517 0.00813662 0.00202533
8 2 10.5876 7.78494 4.41764 -0.00397319 0.0263451 -0.00203956
9 2 7.34033 8.11429 7.32747 0.0128542 -0.0302172 -0.0161042
10 1 6.86477 8.97588 7.2331 0.00125962 -0.00551569 -0.0037432
11 2 7.4427 9.45533 6.54469 -0.0209192 -0.00138491 -0.00257322
12 2 5.599 9.57047 8.30788 0.00497664 -0.00199297 0.0104691
13 1 5.43431 8.22364 2.79558 -0.00116815 -0.00167238 0.00450859
14 2 6.39022 8.13895 2.75991 -0.0273715 -0.0123153 0.0175614
15 2 5.19405 7.92893 3.64947 0.011824 0.0111095 -0.00200705
16 1 8.24064 7.50595 2.29424 -0.00436721 -0.00285402 0.00163498
17 2 9.11537 7.63346 2.74428 -0.0115339 0.0338192 -0.0151657
18 2 8.34414 6.7583 11.5542 0.0129351 0.0240015 0.0245103
19 1 5.06864 4.77806 2.66924 0.00560447 0.00924288 -0.00491282
20 2 5.53599 4.87478 11.6483 8.93673e-06 -0.0217456 0.00740484
21 2 4.64723 7.14327 11.1445 -0.00346827 -0.030104 0.00534667
22 1 9.15588 8.72957 9.91671 -0.00083887 -0.000959315 -0.00280959
23 2 9.16371 8.67689 10.8938 -0.0111181 0.0251559 0.00922558
24 2 10.0271 8.48913 9.5581 0.00253068 -0.0040852 0.00783715
25 1 12.772 9.53457 5.07119 -0.00384326 -0.002686 0.00542299
26 2 3.444 11.2852 5.1362 0.016283 0.0211569 -0.0170664
27 2 5.48968 13.5653 4.00377 -0.0197297 0.0135874 0.0112909
28 1 9.83432 6.19784 5.44538 -0.00429438 0.00261953 0.00522874
29 2 9.22804 5.61726 5.04036 0.0209632 -0.0200561 0.0207909
30 2 9.40961 6.41408 6.23353 -0.0356252 8.36537e-05 0.0171779
31 1 3.57517 12.1686 5.52722 0.00760777 0.00456279 -0.00500217
32 2 12.4511 13.817 6.00551 -0.00156225 -0.00658513 -0.0235451
33 2 4.39379 12.4153 5.03297 -0.0277127 0.024104 -0.000953376
34 1 8.09101 5.29098 10.5123 0.00589241 -0.000264075 0.00131468
35 2 7.40606 4.75526 10.0562 -0.00406678 -0.00351416 -0.0121361
36 2 8.87556 4.92794 10.1315 -0.0131199 -0.0266507 0.00845708
37 1 7.53 10.9176 10.3258 0.00509473 0.00163713 -0.000856331
38 2 7.83073 11.6586 9.76015 0.00311549 -0.0200251 -0.00264213
39 2 8.30995 10.1886 10.1291 -0.0113752 -0.0341535 -0.00577123
40 1 12.0249 4.76517 6.30413 0.0050899 -0.0024545 -0.000534378
41 2 6.02074 12.0807 3.98846 -0.00441974 -0.00388646 0.0136505
42 2 11.2712 4.96429 5.64154 -0.00519187 -0.00476947 -0.0139392
43 1 5.89716 12.8509 4.60039 -0.0041627 -0.000731316 -0.000709044
44 2 11.7038 8.47498 3.69966 -0.00768 -0.0192296 -0.00366062
45 2 7.45727 13.6919 3.63582 -0.0132231 -0.0108159 0.00984279
46 1 8.98008 12.9192 8.91301 0.00445522 0.00264957 -0.00437678
47 2 8.57651 12.964 8.03255 0.0171376 0.0184257 -0.00163108
48 2 9.85376 12.4526 8.74596 -0.000318231 0.0114539 -0.0112133
49 1 11.5534 7.70666 8.78629 0.00262413 0.00816636 0.00239756
50 2 11.286 6.76813 8.91405 -0.011176 0.00782374 -0.00498475
51 2 12.299 7.67253 9.35761 0.0164702 0.0297475 0.00182426
52 1 8.94771 10.1854 5.75452 -0.000491157 0.00160295 0.00264729
53 2 9.851 10.1028 6.2469 -0.0157098 -0.02287 0.00993006
54 2 8.85507 11.1764 5.64699 -0.00723219 0.0303064 0.00443171
55 1 5.58312 10.9795 2.76782 -0.00161891 -0.00111026 0.00178777
56 2 5.51004 9.98975 2.98141 0.0184548 0.0554716 -0.00919392
57 2 6.14058 10.97 11.7703 0.0014047 -0.00519853 -0.0179957
58 1 5.44521 10.0337 9.12764 -0.00283412 -0.00159105 0.00422156
59 2 3.35627 11.8903 8.29276 -0.0231147 -0.000231161 0.000789151
60 2 6.43873 10.3066 9.55024 0.0237183 -0.0259466 -0.0308131
61 1 7.46939 6.41281 7.43448 0.00335017 -0.000193382 0.00762301
62 2 7.62394 6.05743 8.29811 -0.00326863 -0.00329743 0.000770011
63 2 6.5484 6.18574 7.13329 0.0182408 -0.0395804 -0.00616147
64 1 4.34373 12.1439 7.95206 -0.000546282 -0.00640483 -0.00817983
65 2 4.38062 11.9183 6.95721 -0.00713306 0.000159304 0.0233901
66 2 3.75589 5.39333 6.75389 -0.0210649 0.0125201 -0.0243875
67 1 11.92 11.5715 9.10253 0.00376933 0.00146991 -0.00785004
68 2 11.5856 10.7891 8.1569 -0.0244212 0.0109995 0.009026
69 2 12.1348 10.9848 9.87988 -0.0140991 -0.00489819 -0.0169298
70 1 10.2077 12.4432 2.15883 0.0013158 0.00194142 -0.00255072
71 2 9.68009 12.769 2.89242 0.00258263 0.00393074 0.0237082
72 2 9.56679 12.4179 11.3017 0.000287115 -0.0189338 -0.00584732
73 1 11.1916 9.97112 7.15697 -0.00602576 -0.00184968 -0.00499452
74 2 11.1082 9.16468 7.59943 -0.0346918 0.0192144 0.0130054
75 2 12.163 9.71383 5.86488 -0.00619199 0.00501547 0.00195345
76 1 11.9133 4.6156 11.5753 0.00322445 -0.00395192 0.0020581
77 2 11.3887 4.63781 10.7426 -0.0089481 -0.00911543 -0.0223333
78 2 4.16596 4.51473 2.35936 0.0293327 0.00751767 -0.00374704
79 1 4.10166 6.90009 10.3974 0.000274988 0.0027151 -0.00903763
80 2 3.39345 6.38208 10.7773 0.0178817 -0.00336669 -0.0155604
81 2 4.92294 11.1607 8.61577 -0.0278097 -0.0134476 -0.0377897
82 1 5.5749 4.39578 9.81684 0.00262328 -0.00251269 0.00734031
83 2 5.20479 13.541 9.32244 -0.00519391 0.00514295 -0.00818271
84 2 5.05166 5.18718 9.69313 -0.00240276 0.00777717 0.0227419
85 1 11.1991 4.96793 9.06014 0.0051096 -0.0011027 0.00459875
86 2 10.5661 4.2502 8.93515 0.00452991 0.00869075 0.0472709
87 2 11.4326 13.7976 2.2723 -0.00721034 0.00649646 0.00499814
88 1 8.33857 12.8841 6.27144 0.0024018 -0.00116079 0.00147992
89 2 7.42613 12.8665 5.90093 0.0162605 0.0023385 0.0364587
90 2 8.77794 13.2977 5.50067 -0.0129568 0.00228772 -0.0288354
91 1 5.05567 7.89715 5.5 -0.0017894 0.00182225 -0.000483833
92 2 3.71697 9.1482 5.43482 0.00864763 -0.0258865 0.00302135
93 2 5.68329 8.33755 6.1173 0.00260483 -0.0408507 -0.00333704
94 1 4.61387 5.70297 7.05768 -0.00858677 -0.00324673 -0.00235137
95 2 4.97389 4.95214 7.51304 -0.0151252 -0.019949 0.00809163
96 2 4.72772 7.00879 5.71344 0.0313877 -0.0133398 -0.0265493
ITEM: TIMESTEP
2
ITEM: NUMBER OF ATOMS
96
ITEM: BOX BOUNDS pp pp pp
2.9236100000000000e+00 1.2773600000000000e+01
4.0306300000000004e+00 1.3880599999999999e+01
2.1372399999999998e+00 1.1987200000000000e+01
ITEM: ATOMS id type x y z vx vy vz
1 1 8.33556 4.13137 3.42062 -0.00150007 -0.00444243 0.00353805
2 2 8.27686 4.55196 2.49988 -0.0349086 -0.0175343 -0.00496247
3 2 11.7953 4.95789 8.29782 -0.0154295 0.00374154 -0.0271601
4 1 12.4161 9.63121 10.9124 0.00267302 0.00382847 0.0039786
5 2 12.3106 9.80833 11.8164 -0.00027487 -0.00338738 -0.0154107
6 2 3.44265 9.24603 10.7933 0.00186461 -0.0017836 0.0118066
7 1 10.787 8.16535 3.55589 -0.00589634 0.00814431 0.00200846
8 2 10.5852 7.79779 4.41651 -0.00582 0.0248424 -0.00205821
9 2 7.34672 8.09818 7.32025 0.0123494 -0.0332659 -0.0129576
10 1 6.86546 8.97319 7.23109 0.00150841 -0.00530043 -0.00428544
11 2 7.43201 9.45492 6.5441 -0.0216159 -0.000312538 5.95728e-05
12 2 5.60247 9.56839 8.31191 0.00861146 -0.00651486 0.00558488
13 1 5.43372 8.22287 2.79771 -0.00121783 -0.00141869 0.00400283
14 2 6.37745 8.13242 2.76833 -0.0226615 -0.0137405 0.0158347
15 2 5.19935 7.93392 3.65041 0.00895402 0.00873911 0.00611942
16 1 8.2385 7.50461 2.29513 -0.00421234 -0.00246615 0.00197464
17 2 9.10907 7.65025 2.7365 -0.0132641 0.0334066 -0.0156216
18 2 8.35059 6.76981 11.566 0.0129726 0.0209645 0.0218115
19 1 5.07139 4.78266 2.66672 0.00543515 0.00917025 -0.00511103
20 2 5.5359 4.86367 11.653 0.000257359 -0.0224807 0.0105882
21 2 4.64552 7.12837 11.1474 -0.00320861 -0.029377 0.00639788
22 1 9.15541 8.72915 9.9153 -0.00105623 -0.000718388 -0.00280879
23 2 9.15842 8.6887 10.8982 -0.00992993 0.0220132 0.00784867
24 2 10.0289 8.48701 9.56244 0.00467673 -0.00436503 0.00955989
25 1 12.77 9.53327 5.07385 -0.00390689 -0.00250788 0.0052605
26 2 3.45055 11.2942 5.12811 0.00987868 0.0142858 -0.0153991
27 2 5.48016 13.5722 4.00952 -0.0180778 0.0131796 0.0117752
28 1 9.83229 6.19916 5.44793 -0.00386776 0.00269638 0.00505145
29 2 9.23758 5.60639 5.04996 0.0171648 -0.0234886 0.0175372
30 2 9.39073 6.41446 6.2437 -0.0392093 0.00116821 0.0223274
31 1 3.57893 12.1709 5.52471 0.00737711 0.00442583 -0.00504397
32 2 12.4502 13.8131 5.99333 -0.00204409 -0.00875397 -0.0249058
33 2 4.38127 12.429 5.03234 -0.021762 0.030942 -0.00190446
34 1 8.09393 5.29082 10.5129 0.0057532 -0.000412152 0.0012549
35 2 7.40374 4.75382 10.0506 -0.00492706 -0.00186291 -0.0101744
36 2 8.86997 4.91437 10.1354 -0.00894497 -0.0276327 0.00700808
37 1 7.53279 10.9183 10.3254 0.00605317 0.00138126 -0.000697354
38 2 7.8323 11.6494 9.75852 0.00336748 -0.0167779 -0.00410899
39 2 8.30247 10.1724 10.1266 -0.0185172 -0.0301473 -0.0039756
40 1 12.0273 4.76398 6.30381 0.00463322 -0.00236114 -0.000794614
41 2 6.01871 12.0779 3.99491 -0.00382999 -0.00686379 0.0120522
42 2 11.2699 4.96187 5.63596 0.000398496 -0.00481726 -0.00805746
43 1 5.8951 12.8507 4.60002 -0.00408207 -0.000348233 -0.000775434
44 2 11.6994 8.46554 3.69778 -0.00936766 -0.0182996 -0.00386646
45 2 7.45028 13.6867 3.64041 -0.0141981 -0.0101467 0.00856964
46 1 8.98241 12.9204 8.91086 0.00484008 0.00243521 -0.00419118
47 2 8.58494 12.9733 8.03152 0.0163496 0.0189088 -0.00267006
48 2 9.85253 12.4588 8.74081 -0.00425371 0.0129362 -0.00938005
49 1 11.5546 7.71069 8.78749 0.00243163 0.00794072 0.00240578
50 2 11.2793 6.77223 8.91068 -0.0151306 0.00898352 -0.00825504
51 2 12.3089 7.68887 9.35925 0.0223589 0.0350624 0.00431722
52 1 8.94747 10.1863 5.75585 -0.000510765 0.00201298 0.0026384
53 2 9.8428 10.0909 6.25193 -0.0169428 -0.0242972 0.0101798
54 2 8.85095 11.1905 5.64949 -0.00886361 0.0252706 0.00587015
55 1 5.58237 10.9788 2.76861 -0.0013579 -0.00141803 0.00130852
56 2 5.51909 10.0185 2.97667 0.0175094 0.0574439 -0.0091204
57 2 6.14032 10.9677 11.7628 -0.00254942 -0.00368109 -0.011614
58 1 5.44361 10.0329 9.12984 -0.00352161 -0.00144852 0.00458885
59 2 3.34309 11.8902 8.29366 -0.0293976 -0.00031103 0.00282457
60 2 6.45022 10.2935 9.53389 0.0220037 -0.0263982 -0.0342975
61 1 7.47107 6.41271 7.43819 0.00336015 -0.000211169 0.00720815
62 2 7.62161 6.05554 8.29905 -0.00593852 -0.00429628 0.00327129
63 2 6.55844 6.16599 7.13134 0.0216973 -0.0393525 -0.00173479
64 1 4.34356 12.1408 7.94807 -0.000127508 -0.00614423 -0.00772051
65 2 4.37659 11.9179 6.9681 -0.00883464 -0.00210149 0.0194279
66 2 3.74431 5.39962 6.74134 -0.024657 0.0127242 -0.0255394
67 1 11.9219 11.5722 9.09852 0.00361523 0.00123217 -0.0081877
68 2 11.5735 10.795 8.16252 -0.0241096 0.0124523 0.0132468
69 2 12.1276 10.9826 9.87015 -0.0144225 -0.00402598 -0.0216449
70 1 10.2084 12.4441 2.15756 0.0013836 0.00190652 -0.00249523
71 2 9.68101 12.7712 2.90495 0.00138959 0.00480202 0.0253925
72 2 9.56692 12.4083 11.2981 0.000255077 -0.0194531 -0.00825109
73 1 11.1886 9.97029 7.15448 -0.00595882 -0.00147824 -0.00495971
74 2 11.091 9.17332 7.60655 -0.034157 0.0151465 0.0154656
75 2 12.1594 9.71647 5.86627 -0.00779677 0.00538843 0.00355312
76 1 11.9149 4.61361 11.5764 0.00318655 -0.0040103 0.00225465
77 2 11.3848 4.63345 10.7315 -0.00614218 -0.00833663 -0.0213476
78 2 4.18121 4.51886 2.35805 0.0306792 0.00871394 -0.00161924
79 1 4.10178 6.90144 10.3929 0.000253101 0.00269094 -0.00916224
80 2 3.40239 6.38013 10.7697 0.01739 -0.00471422 -0.0144737
81 2 4.90963 11.1539 8.59652 -0.0253463 -0.0138451 -0.0390697
82 1 5.57629 4.39454 9.82055 0.00292217 -0.00243866 0.00747484
83 2 5.2013 13.5432 9.31771 -0.00859514 0.00429374 -0.0105264
84 2 5.04979 5.19123 9.70412 -0.00481064 0.0080764 0.0212782
85 1 11.2016 4.9674 9.06247 0.00501979 -0.000987703 0.00469758
86 2 10.5682 4.25426 8.95821 0.00378663 0.00716127 0.044717
87 2 11.4293 13.8009 2.27452 -0.00604184 0.00670632 0.00377114
88 1 8.33974 12.8835 6.27204 0.0023515 -0.00112699 0.000907455
89 2 7.43466 12.8675 5.91988 0.0168538 0.0017722 0.0388952
90 2 8.77151 13.2988 5.48685 -0.0129813 0.00186758 -0.0259987
91 1 5.05472 7.89812 5.49966 -0.0020249 0.00204762 -0.00092141
92 2 3.72235 9.13434 5.43637 0.0119348 -0.0290986 0.00298003
93 2 5.68476 8.31615 6.11652 0.00375356 -0.0443156 0.000573358
94 1 4.60965 5.70138 7.0565 -0.00828818 -0.0031357 -0.00235971
95 2 4.96669 4.94157 7.51766 -0.014124 -0.0217189 0.00992982
96 2 4.74419 7.00224 5.70156 0.0342914 -0.013135 -0.0209659
ITEM: TIMESTEP
3
ITEM: NUMBER OF ATOMS
96
ITEM: BOX BOUNDS pp pp pp
2.9236100000000000e+00 1.2773600000000000e+01
4.0306300000000004e+00 1.3880599999999999e+01
2.1372399999999998e+00 1.1987200000000000e+01
ITEM: ATOMS id type x y z vx vy vz
1 1 8.33485 4.1292 3.42231 -0.00139455 -0.00426467 0.0032438
2 2 8.25903 4.54247 2.49906 -0.0361112 -0.0203146 0.00169434
3 2 11.7874 4.95912 8.28365 -0.0164965 0.00109892 -0.029155
4 1 12.4174 9.63311 10.9143 0.00264231 0.00374874 0.00356064
5 2 12.3108 9.80669 11.8098 0.000966009 -0.00299699 -0.00982224
6 2 3.44356 9.24525 10.7997 0.00180261 -0.00135648 0.0136723
7 1 10.7841 8.16942 3.55688 -0.00576766 0.00815461 0.00193681
8 2 10.5818 7.80978 4.41559 -0.00801361 0.0229528 -0.00124313
9 2 7.35268 8.08102 7.31451 0.0110763 -0.0344083 -0.0101623
10 1 6.86628 8.97058 7.22882 0.00177101 -0.00519472 -0.0047647
11 2 7.42109 9.45502 6.54475 -0.0217939 0.000710695 0.00235946
12 2 5.60762 9.56396 8.31347 0.0116005 -0.011207 0.000819951
13 1 5.43309 8.22222 2.79958 -0.00134786 -0.0011996 0.00349466
14 2 6.36755 8.12521 2.77574 -0.016144 -0.0150805 0.013532
15 2 5.20301 7.93767 3.65559 0.00538023 0.00629309 0.0145107
16 1 8.23643 7.50349 2.29622 -0.0041254 -0.00196138 0.00238142
17 2 9.10211 7.66686 2.72866 -0.0141126 0.0331231 -0.0154742
18 2 8.35711 6.77926 11.576 0.01324 0.0159048 0.0174747
19 1 5.07408 4.78723 2.66413 0.00531754 0.00911313 -0.00517927
20 2 5.53624 4.8523 11.6589 0.00176215 -0.022854 0.0123805
21 2 4.64402 7.11389 11.1509 -0.00272105 -0.0284273 0.00716856
22 1 9.15483 8.72885 9.9139 -0.00127251 -0.000482691 -0.00276438
23 2 9.15378 8.6989 10.9017 -0.00857824 0.0187756 0.00566723
24 2 10.0318 8.48477 9.56766 0.00672044 -0.00457738 0.0113985
25 1 12.7681 9.53206 5.07645 -0.00387649 -0.00237375 0.00512798
26 2 3.45388 11.2995 5.1208 0.00358686 0.00695445 -0.0139248
27 2 5.4716 13.5785 4.01554 -0.0158939 0.0116769 0.012293
28 1 9.83045 6.20053 5.45043 -0.0035431 0.00280725 0.00503613
29 2 9.24521 5.59377 5.05789 0.0135389 -0.0268707 0.0142739
30 2 9.3704 6.41524 6.25586 -0.041329 0.00160804 0.024926
31 1 3.58255 12.173 5.52218 0.00705157 0.00429633 -0.00505694
32 2 12.4491 13.8083 5.98061 -0.00264376 -0.0102953 -0.0257261
33 2 4.37203 12.4462 5.03106 -0.0149024 0.0380329 -0.00342882
34 1 8.09676 5.29057 10.5135 0.00555228 -0.000617655 0.00114817
35 2 7.40113 4.75339 10.0461 -0.00529827 0.000513345 -0.00755981
36 2 8.86661 4.90031 10.1385 -0.00439399 -0.0285542 0.00564623
37 1 7.53605 10.919 10.3251 0.00693709 0.00103067 -0.000550839
38 2 7.8341 11.6419 9.75604 0.00403449 -0.0131366 -0.00593315
39 2 8.29144 10.1585 10.1251 -0.0254784 -0.0253837 -0.00214263
40 1 12.0295 4.76281 6.30333 0.00417152 -0.00231916 -0.00111055
41 2 6.01691 12.0738 4.00051 -0.00348884 -0.00923928 0.0102907
42 2 11.2716 4.95947 5.63348 0.00618912 -0.00460765 -0.00175241
43 1 5.89308 12.8506 4.59962 -0.00399811 8.38426e-05 -0.000834187
44 2 11.6944 8.45668 3.69579 -0.00999901 -0.0169533 -0.00407128
45 2 7.44307 13.6818 3.64439 -0.0140641 -0.00931707 0.00740129
46 1 8.98492 12.9216 8.90882 0.00520109 0.00224418 -0.00397444
47 2 8.59286 12.9829 8.02988 0.0151705 0.0195142 -0.00403301
48 2 9.84951 12.4656 8.73658 -0.0073741 0.0140038 -0.00753517
49 1 11.5558 7.7146 8.7887 0.00227623 0.00772476 0.00244542
50 2 11.2709 6.77711 8.9058 -0.0178986 0.0107908 -0.0109377
51 2 12.3213 7.7076 9.36193 0.0264706 0.0392618 0.00585375
52 1 8.9472 10.1874 5.75716 -0.000605109 0.00250262 0.00259321
53 2 9.83406 10.0785 6.25708 -0.0178342 -0.0250512 0.010461
54 2 8.8462 11.2016 5.65286 -0.00976406 0.0184873 0.0078157
55 1 5.58176 10.978 2.76913 -0.00106044 -0.00144891 0.000729307
56 2 5.52755 10.0472 2.97229 0.0160767 0.0551838 -0.00765418
57 2 6.13803 10.9663 11.7586 -0.00658547 -0.00185818 -0.00513787
58 1 5.44169 10.0322 9.13223 -0.00409628 -0.00134633 0.00492866
59 2 3.32687 11.89 8.29558 -0.0350583 -0.000318955 0.00481432
60 2 6.46074 10.2802 9.51594 0.0198417 -0.0262189 -0.0371264
61 1 7.47275 6.4126 7.44169 0.00338748 -0.000233774 0.00677766
62 2 7.61801 6.05313 8.30138 -0.0083358 -0.00536275 0.00623505
63 2 6.5701 6.14639 7.13156 0.0245886 -0.0390101 0.00243485
64 1 4.3436 12.1378 7.94434 0.000271517 -0.00585807 -0.00716708
65 2 4.37178 11.9162 6.97663 -0.0102943 -0.00476112 0.0140676
66 2 3.73124 5.40606 6.72836 -0.0268634 0.0131336 -0.0260642
67 1 11.9236 11.5727 9.09434 0.00340388 0.00103155 -0.0085536
68 2 11.5615 10.8016 8.17015 -0.0235565 0.01384 0.0169729
69 2 12.1204 10.9808 9.85824 -0.0142623 -0.00355558 -0.0254682
70 1 10.2091 12.4451 2.15633 0.00139167 0.0019072 -0.0023671
71 2 9.68148 12.7738 2.91782 0.000735322 0.00515197 0.0250617
72 2 9.56705 12.3984 11.2934 0.000375999 -0.0197585 -0.00971321
73 1 11.1856 9.96965 7.15201 -0.00590809 -0.00110048 -0.00489756
74 2 11.0741 9.17983 7.61489 -0.0335305 0.010877 0.0177903
75 2 12.1552 9.71922 5.86843 -0.00878744 0.00547913 0.00501237
76 1 11.9165 4.61159 11.5775 0.00308309 -0.0040652 0.00235071
77 2 11.3825 4.62947 10.7213 -0.00225568 -0.00763003 -0.0185201
78 2 4.19664 4.52345 2.35774 0.0299737 0.00933997 0.000168942
79 1 4.10191 6.90278 10.3883 0.000270558 0.00269244 -0.0092726
80 2 3.41084 6.37736 10.7628 0.0159642 -0.00664162 -0.0133679
81 2 4.89759 11.1469 8.5767 -0.0227762 -0.0138373 -0.0400419
82 1 5.57782 4.39334 9.82432 0.00316058 -0.00236032 0.00755185
83 2 5.19619 13.5452 9.31191 -0.0115826 0.00406241 -0.0123433
84 2 5.04685 5.19525 9.71441 -0.00663869 0.00764176 0.0199391
85 1 11.2041 4.96694 9.06484 0.00499396 -0.000804742 0.00477001
86 2 10.5699 4.25736 8.97987 0.00257218 0.00498267 0.041715
87 2 11.4266 13.8043 2.27607 -0.00488489 0.00691698 0.00240789
88 1 8.34092 12.883 6.27235 0.00245455 -0.00107107 0.000320774
89 2 7.44298 12.8683 5.93983 0.015394 0.00115467 0.0404819
90 2 8.76496 13.2996 5.47467 -0.0134314 0.00102999 -0.0223915
91 1 5.05364 7.8992 5.49908 -0.00230551 0.00225061 -0.00137613
92 2 3.72891 9.1191 5.4378 0.0132882 -0.031377 0.00254227
93 2 5.68705 8.29323 6.11788 0.00579159 -0.0469504 0.00511218
94 1 4.60558 5.69983 7.05532 -0.00801173 -0.00311414 -0.00235583
95 2 4.95976 4.93042 7.52297 -0.0141157 -0.0222342 0.0108293
96 2 4.76201 6.99566 5.69247 0.0367951 -0.0134439 -0.0154803
ITEM: TIMESTEP
4
ITEM: NUMBER OF ATOMS
96
ITEM: BOX BOUNDS pp pp pp
2.9236100000000000e+00 1.2773600000000000e+01
4.0306300000000004e+00 1.3880599999999999e+01
2.1372399999999998e+00 1.1987200000000000e+01
ITEM: ATOMS id type x y z vx vy vz
1 1 8.33417 4.12711 3.42386 -0.00137692 -0.00412443 0.00294794
2 2 8.24075 4.53164 2.50157 -0.0366876 -0.0228127 0.00813759
3 2 11.7788 4.95899 8.26866 -0.0181821 -0.00167225 -0.0303354
4 1 12.4188 9.63496 10.916 0.00262652 0.00364895 0.00307199
5 2 12.3116 9.80533 11.8065 0.00193491 -0.00234348 -0.00296133
6 2 3.44445 9.24467 10.807 0.00178344 -0.000960437 0.0154095
7 1 10.7813 8.1735 3.55782 -0.00568564 0.00816393 0.00181655
8 2 10.5772 7.82074 4.41527 -0.010485 0.0207503 0.000279775
9 2 7.3578 8.06377 7.31008 0.00909688 -0.0336193 -0.00774462
10 1 6.86723 8.968 7.22632 0.00203494 -0.00519781 -0.0051728
11 2 7.41022 9.45563 6.54646 -0.0213592 0.00167434 0.00422269
12 2 5.61407 9.55718 8.31273 0.0136635 -0.0156857 -0.00341524
13 1 5.43237 8.22167 2.8012 -0.00153747 -0.00102848 0.00303387
14 2 6.3613 8.11734 2.78186 -0.0084659 -0.0163443 0.0107657
15 2 5.20473 7.94021 3.66492 0.00146029 0.00407819 0.0223388
16 1 8.23438 7.50264 2.29752 -0.00410805 -0.00137134 0.00283333
17 2 9.09495 7.68337 2.72103 -0.0140882 0.0329918 -0.0147593
18 2 8.36383 6.78572 11.5835 0.0137252 0.00927089 0.0118752
19 1 5.07671 4.79178 2.66154 0.00525564 0.0090776 -0.00510627
20 2 5.53766 4.84082 11.6654 0.0045473 -0.0229215 0.0126687
21 2 4.6428 7.09994 11.1546 -0.00210314 -0.0272791 0.00753816
22 1 9.15414 8.72867 9.91254 -0.00147103 -0.000259849 -0.00268612
23 2 9.14984 8.70747 10.9039 -0.00712348 0.0154809 0.0028138
24 2 10.0357 8.48244 9.57384 0.00851729 -0.00469828 0.0133351
25 1 12.7662 9.5309 5.07898 -0.00374858 -0.00227971 0.00503073
26 2 3.45414 11.3011 5.11419 -0.00217086 -0.00013004 -0.0125603
27 2 5.46427 13.5839 4.02181 -0.0132295 0.00929218 0.0126957
28 1 9.82874 6.20197 5.45296 -0.00335774 0.00292812 0.00517651
29 2 9.25112 5.57952 5.06423 0.0105011 -0.0297656 0.0112789
30 2 9.34941 6.41607 6.26862 -0.041811 0.00137585 0.0247854
31 1 3.58598 12.1752 5.51965 0.0066523 0.00415753 -0.00505353
32 2 12.4476 13.8028 5.96761 -0.00335025 -0.0111918 -0.0259737
33 2 4.36636 12.467 5.02891 -0.00789494 0.0447851 -0.00526857
34 1 8.09948 5.2902 10.5141 0.00531959 -0.000877823 0.000992325
35 2 7.39844 4.75433 10.043 -0.0052617 0.00348295 -0.0044106
36 2 8.86558 4.88582 10.141 0.000122755 -0.02928 0.00451432
37 1 7.53973 10.9194 10.3249 0.00771678 0.000612907 -0.000428984
38 2 7.83633 11.6362 9.75258 0.00506307 -0.0093204 -0.00796328
39 2 8.277 10.1471 10.1245 -0.0319759 -0.020111 -0.000342764
40 1 12.0315 4.76166 6.3027 0.0037335 -0.00233895 -0.00145851
41 2 6.01522 12.0687 4.0052 -0.00342159 -0.010925 0.0084577
42 2 11.2761 4.95726 5.63421 0.0117078 -0.00402516 0.00454303
43 1 5.8911 12.8508 4.59919 -0.00390622 0.000544999 -0.000884468
44 2 11.6894 8.44859 3.69371 -0.00955497 -0.0152315 -0.00423521
45 2 7.43621 13.6774 3.64781 -0.012882 -0.0083687 0.00640814
46 1 8.98761 12.9227 8.90689 0.00551595 0.00208564 -0.00373094
47 2 8.60011 12.9928 8.02749 0.0136917 0.0202328 -0.00560304
48 2 9.84516 12.4728 8.73327 -0.00943133 0.0145199 -0.00575765
49 1 11.5569 7.71841 8.78993 0.00216994 0.00753919 0.00251807
50 2 11.2614 6.78302 8.89974 -0.0194627 0.01301 -0.0129593
51 2 12.3353 7.72813 9.36511 0.0286042 0.0422307 0.00633846
52 1 8.94686 10.1888 5.75844 -0.000770793 0.00303721 0.00251531
53 2 9.82497 10.0659 6.26239 -0.0182879 -0.0251771 0.010836
54 2 8.84118 11.209 5.65731 -0.0100051 0.0105222 0.0101573
55 1 5.58131 10.9773 2.76934 -0.000750033 -0.00118956 7.95234e-05
56 2 5.53517 10.0737 2.96901 0.0142276 0.0484365 -0.00476923
57 2 6.13374 10.9658 11.7577 -0.010383 0.00023017 0.000941703
58 1 5.43951 10.0316 9.13477 -0.0045283 -0.00129274 0.00521417
59 2 3.30803 11.8898 8.29847 -0.0397565 -0.000246921 0.00666469
60 2 6.47006 10.2672 9.49676 0.0171724 -0.0253256 -0.0391139
61 1 7.47446 6.41247 7.44497 0.0034449 -0.000269477 0.00635317
62 2 7.61328 6.05018 8.30529 -0.0104292 -0.00636803 0.00947513
63 2 6.58303 6.12698 7.13377 0.0267044 -0.0385943 0.00618869
64 1 4.34384 12.1349 7.9409 0.000652728 -0.00556325 -0.00654375
65 2 4.36629 11.9131 6.98217 -0.0116464 -0.00766279 0.00765006
66 2 3.71744 5.41275 6.71528 -0.0274958 0.0137589 -0.0258611
67 1 11.9253 11.5732 9.08997 0.00312292 0.000883786 -0.00894827
68 2 11.5499 10.8088 8.17949 -0.022853 0.01505 0.0199608
69 2 12.1133 10.979 9.84468 -0.0135099 -0.00367219 -0.0280988
70 1 10.2098 12.446 2.15519 0.00133758 0.00194102 -0.00217299
71 2 9.68175 12.7764 2.93001 0.000597602 0.00498235 0.022742
72 2 9.56729 12.3885 11.2883 0.000720042 -0.0198379 -0.0101664
73 1 11.1827 9.96919 7.14958 -0.00587975 -0.00074505 -0.00479304
74 2 11.0575 9.1842 7.62434 -0.0327308 0.00686574 0.019716
75 2 12.1506 9.72194 5.87129 -0.00912824 0.00524439 0.00630387
76 1 11.918 4.60954 11.5787 0.00293409 -0.00411049 0.00236228
77 2 11.3825 4.62582 10.7129 0.0024775 -0.00697682 -0.014196
78 2 4.21119 4.5282 2.35822 0.027127 0.00936262 0.00153903
79 1 4.10206 6.90413 10.3836 0.000322444 0.00271409 -0.00935492
80 2 3.41836 6.37349 10.7564 0.0137762 -0.00902329 -0.0123376