ITEM: TIMESTEP
0
ITEM: NUMBER OF ATOMS
96
ITEM: BOX BOUNDS pp pp pp
2.9236100000000000e+00 1.2773600000000000e+01
4.0306300000000004e+00 1.3880599999999999e+01
2.1372399999999998e+00 1.1987200000000000e+01
ITEM: ATOMS id type x y z vx vy vz
1 1 8.50326 4.60523 3.18006 -0.00136043 0.00222094 -0.00415874
2 2 7.92964 4.87362 2.4674 -0.0028676 0.0166986 0.006518
3 2 10.6533 4.5577 7.81071 -0.00285125 0.0217448 -0.0087275
4 1 12.4629 9.47801 10.7253 0.00308179 0.00320647 -0.00505013
5 2 12.2575 9.26955 11.6358 -0.000227749 -0.0291562 -0.00960059
6 2 3.60993 9.48626 10.7613 0.0129102 -0.011895 0.0178817
7 1 11.1737 7.69698 3.37612 0.00394501 -0.00520371 -0.00298913
8 2 10.6765 7.23419 4.10261 -0.00390399 0.0313007 -0.00344069
9 2 7.20695 8.28565 7.29065 0.000108848 0.0151382 -0.0024378
10 1 7.02936 9.27173 7.09389 -0.000687798 0.00789778 -0.00213946
11 2 7.93203 9.64046 6.84556 0.0279317 0.00116202 0.00867239
12 2 6.06348 9.98033 8.40198 0.0192614 -0.020363 0.00407002
13 1 5.65998 8.21752 2.56094 0.0022006 -0.00185292 -0.00396762
14 2 6.56823 7.89245 2.55945 0.0249423 -0.0177837 0.012221
15 2 5.35737 7.98497 3.49018 0.00500063 0.0141171 0.0351284
16 1 8.53019 7.60196 2.35373 0.00661234 0.00401601 -0.000170187
17 2 9.22076 7.63751 3.00115 0.0146494 -0.0209207 0.0218074
18 2 8.64265 6.71901 11.8079 -0.0232149 0.00272444 0.00687465
19 1 4.57516 4.43597 2.7958 -0.00266543 -0.00597643 0.00282954
20 2 4.84284 13.6325 11.9155 -0.0189988 -0.000866768 0.00365127
21 2 4.37188 7.18013 11.1981 -0.00356832 -0.0224984 -0.002251
22 1 9.27735 8.93641 9.88599 0.000923138 0.000880707 -0.00130913
23 2 9.0965 8.31709 10.6036 0.0198053 0.00553218 0.00748138
24 2 9.92353 8.53057 9.28463 -0.0127514 0.0169309 -0.0154335
25 1 12.6379 9.47213 4.91777 0.00101092 -0.00277461 -0.00792304
26 2 3.1114 11.4249 5.45934 0.00885888 0.0211417 0.00194978
27 2 5.43782 13.4446 3.889 -0.0221363 0.00360187 0.0139709
28 1 9.76288 5.98217 5.09198 0.000990688 -0.0066511 -0.00129429
29 2 9.48998 5.40995 4.3354 -0.0210454 0.018251 -0.0357034
30 2 8.90908 6.42845 5.34616 -0.00495786 0.00964234 0.0178084
31 1 3.52693 12.2385 5.81062 0.00612135 -0.00154756 0.00248298
32 2 12.4166 13.6687 6.28815 -0.010409 0.028577 0.00485686
33 2 4.43669 12.4462 5.24054 0.00241185 0.00218956 -0.019586
34 1 8.09013 5.3537 10.4544 0.00404658 -0.0017317 0.00220459
35 2 7.26378 5.67017 10.0459 -0.00181048 0.00762472 -0.019601
36 2 8.08859 4.48104 10.1354 -0.0124417 0.0179082 -0.017769
37 1 7.48357 10.8628 10.5884 0.00401335 -0.00201552 0.00213599
38 2 7.7616 11.6685 10.206 0.00921232 0.012265 0.0254808
39 2 8.13509 10.1273 10.4316 0.0233458 -0.00889327 0.0117655
40 1 12.1458 4.73393 6.44273 0.00491744 0.00222102 -6.68039e-05
41 2 5.93612 11.8521 4.10615 -0.015863 -0.0342614 -0.00558418
42 2 11.3866 4.9241 5.91282 0.00710412 -0.0184933 -0.0177897
43 1 5.92284 12.7234 4.53133 -0.0055332 5.88705e-05 -0.00124357
44 2 11.9591 8.0525 3.81037 0.0231915 -0.0177868 0.015785
45 2 7.84879 4.23894 3.81476 -0.00796392 0.0266969 -0.0351493
46 1 9.03081 12.7105 9.1054 -0.000232701 -0.000341246 -0.00015683
47 2 8.81999 12.7986 8.13953 0.0123458 0.00891154 -0.00983694
48 2 9.9425 12.411 9.11115 0.0238784 -0.0200614 0.00728861
49 1 11.375 7.49823 8.6933 -0.0014017 -0.000263614 0.000672145
50 2 11.1443 6.5188 8.71171 0.00395154 0.0119924 0.00766985
51 2 11.9923 7.77033 9.31901 -0.0263786 -0.00423097 -0.00292341
52 1 9.3502 10.2463 5.91431 0.00328725 0.00411043 0.00119855
53 2 9.97194 10.0051 6.67307 -0.0155811 0.00431923 -0.00333945
54 2 9.14956 11.2617 5.95828 0.0117679 0.00627225 0.0257975
55 1 5.58031 10.965 2.68567 -0.0020647 0.00247945 -0.000771276
56 2 5.7008 9.90703 2.72917 0.00603 -0.00672566 0.00354139
57 2 6.28758 11.2094 2.13724 -0.0252475 -0.00361107 0.0141818
58 1 5.33386 10.1601 9.04275 -0.0044495 -0.000614446 -0.0038079
59 2 3.1204 12.1105 8.76496 0.0265046 -0.00258593 -0.0130192
60 2 5.92863 10.4835 9.8578 0.00933445 0.0361302 -0.00212345
61 1 7.6399 6.51747 7.15605 0.00427196 -0.00164205 -0.00305002
62 2 7.47563 6.6201 8.10451 0.0479038 0.000516621 -0.0128396
63 2 6.73729 6.22276 6.91966 0.00250175 0.0149911 0.00551969
64 1 4.09841 12.4137 8.43416 -0.000955076 -0.00266937 0.00678604
65 2 4.04416 12.2799 7.34018 -0.00732036 0.0302868 -0.0122566
66 2 3.96187 5.43189 6.99307 -0.00486867 -0.00562327 -0.000552788
67 1 11.5779 11.4944 9.18798 -0.0141304 -0.00242678 0.00812087
68 2 11.5076 10.8391 8.2549 0.00164353 -0.00941466 -0.0018738
69 2 11.8445 10.9357 9.9166 -0.0128706 -0.00369216 -0.00996662
70 1 10.2117 12.4416 2.19813 -0.000324382 -0.00135059 -0.0007335
71 2 9.66282 13.1034 2.69458 -0.00408879 0.0160605 0.0102427
72 2 9.62994 11.9861 11.4489 0.011159 0.0128026 0.018596
73 1 11.398 9.80947 7.20033 0.000404699 -0.00588324 0.00507857
74 2 11.3121 8.90056 7.49551 -0.0294657 -0.000958886 0.00586691
75 2 12.0218 9.71246 5.75682 0.00338026 -0.0242664 -0.0256606
76 1 11.9842 4.75742 11.7968 -0.00367775 -8.70884e-05 0.00266153
77 2 11.6483 4.78639 10.8965 0.000979778 -0.00930583 0.000297644
78 2 3.55786 4.32237 2.85238 0.0106351 -0.0105505 0.00302102
79 1 3.80633 6.59438 10.6815 -0.00215307 -0.00711897 -1.43295e-06
80 2 3.41902 6.05613 11.3924 -0.0377382 -0.000116883 0.00906743
81 2 4.73471 11.3052 8.7647 -0.0316629 0.0152743 -0.0372169
82 1 5.48135 4.78918 9.61029 -0.00180401 0.0106109 0.011346
83 2 4.98467 13.8072 9.64184 0.00886878 0.00799628 0.00241073
84 2 4.87803 5.42204 10.1415 -0.00455014 -0.00314215 -0.00378021
85 1 10.7392 4.86447 8.77471 -0.00983916 -0.00175797 0.00450674
86 2 9.8954 4.51453 9.16625 0.019903 -0.00470452 -0.00997493
87 2 11.5314 13.8331 2.2723 0.013291 -0.00576829 -0.0102828
88 1 8.39663 12.7826 6.12903 0.00535086 -0.00349842 0.00141027
89 2 7.52069 12.6063 5.82295 0.0133827 0.00797387 0.024392
90 2 8.65807 13.6542 5.66237 -0.00358284 0.00512602 -0.0234458
91 1 5.08096 8.16103 5.51868 -0.000917099 0.00462099 0.000817049
92 2 3.51246 8.82455 5.24597 -0.0014948 0.00514063 -0.00283952
93 2 5.4804 8.58932 6.34827 0.00739503 0.00851587 -0.017925
94 1 4.85869 5.75814 7.16126 -0.00381888 0.00296839 -0.00929606
95 2 5.12384 5.48992 8.10371 0.00470845 0.014082 -0.012501
96 2 4.86731 7.29371 6.02894 0.00834165 -0.00140622 -0.0138062
ITEM: TIMESTEP
1
ITEM: NUMBER OF ATOMS
96
ITEM: BOX BOUNDS pp pp pp
2.9236100000000000e+00 1.2773600000000000e+01
4.0306300000000004e+00 1.3880599999999999e+01
2.1372399999999998e+00 1.1987200000000000e+01
ITEM: ATOMS id type x y z vx vy vz
1 1 8.50253 4.60627 3.17806 -0.00154103 0.00194 -0.00388075
2 2 7.92814 4.88251 2.46946 -0.00312388 0.0190021 0.0014043
3 2 10.6529 4.5695 7.80787 0.00110004 0.025363 -0.00261366
4 1 12.4646 9.47961 10.7228 0.00359292 0.00316027 -0.00488772
5 2 12.2571 9.2549 11.6309 -0.00141439 -0.0293938 -0.0101936
6 2 3.61483 9.48036 10.77 0.00641831 -0.0116359 0.0166034
7 1 11.1757 7.69435 3.37466 0.00393098 -0.00526713 -0.00282744
8 2 10.6748 7.24968 4.10056 -0.00324648 0.0303891 -0.00448454
9 2 7.207 8.29433 7.28887 -2.62356e-05 0.0193314 -0.00456689
10 1 7.02909 9.27561 7.09286 -0.000349286 0.00765348 -0.00198806
11 2 7.94558 9.64107 6.84945 0.0256281 0.00119685 0.00695925
12 2 6.07358 9.97005 8.40194 0.0204813 -0.0206934 -0.00374855
13 1 5.66103 8.21658 2.55904 0.00205746 -0.00193328 -0.00354138
14 2 6.58112 7.88377 2.56536 0.0255106 -0.0164809 0.0113261
15 2 5.36021 7.99256 3.50677 0.00660566 0.0164705 0.0301213
16 1 8.53344 7.60395 2.3536 0.00643075 0.00396141 -0.000285434
17 2 9.22893 7.62731 3.01244 0.0173238 -0.0199305 0.0226762
18 2 8.63081 6.72028 11.8113 -0.0240903 0.00224557 0.00670069
19 1 4.57382 4.43287 2.79717 -0.00266404 -0.00638602 0.00265666
20 2 4.83269 13.6334 11.9185 -0.021248 0.00407504 0.00800441
21 2 4.37057 7.16941 11.1968 -0.00142059 -0.0201595 -0.00274353
22 1 9.27779 8.93689 9.88529 0.000810597 0.00104891 -0.00147856
23 2 9.1065 8.31931 10.608 0.0202554 0.00331474 0.0101501
24 2 9.91761 8.53864 9.27704 -0.0107991 0.0151943 -0.0149978
25 1 12.6384 9.4707 4.91387 0.00111668 -0.00293267 -0.0077125
26 2 3.11651 11.4353 5.46024 0.0112262 0.0196867 0.00146942
27 2 5.42732 13.4448 3.89665 -0.019703 -0.00317098 0.0165517
28 1 9.76332 5.97889 5.09135 0.000715685 -0.00646503 -0.00126644
29 2 9.4799 5.41925 4.31757 -0.0190557 0.0193928 -0.0349906
30 2 8.90774 6.43279 5.35547 0.000137055 0.00737524 0.0192348
31 1 3.53013 12.2378 5.81179 0.00671239 -0.00141313 0.00220017
32 2 12.4113 13.6826 6.29025 -0.0103019 0.0259208 0.00351519
33 2 4.43651 12.4466 5.23173 -0.00295615 -0.00072249 -0.0155237
34 1 8.09211 5.35293 10.4555 0.00382519 -0.00132208 0.00214733
35 2 7.26303 5.67404 10.0365 -0.000659897 0.00783334 -0.0176119
36 2 8.08293 4.4884 10.1261 -0.0100172 0.0111071 -0.0194753
37 1 7.48546 10.8617 10.5895 0.0035832 -0.00226302 0.00242648
38 2 7.76759 11.6756 10.2175 0.0147043 0.0156921 0.0208332
39 2 8.14705 10.1233 10.4371 0.0240714 -0.00639809 0.0101314
40 1 12.1483 4.73509 6.44275 0.00497343 0.0024899 0.000125022
41 2 5.9279 11.8343 4.10219 -0.0170956 -0.0356019 -0.00982125
42 2 11.3894 4.91509 5.90322 0.00419609 -0.017346 -0.0204863
43 1 5.91998 12.7236 4.53077 -0.00593049 0.000635438 -0.00102477
44 2 11.9708 8.04432 3.81847 0.022914 -0.0151428 0.0161541
45 2 7.84509 4.25215 3.79702 -0.00738357 0.025673 -0.0349293
46 1 9.03062 12.7104 9.10527 -0.000460871 -0.000221566 -0.000402647
47 2 8.82614 12.8029 8.13534 0.0123264 0.00803953 -0.00658121
48 2 9.95507 12.4006 9.11502 0.0252804 -0.0212247 0.00816878
49 1 11.3742 7.49813 8.69349 -0.00193562 -0.000121467 6.01649e-05
50 2 11.1469 6.52478 8.71614 0.00622899 0.0115316 0.0100004
51 2 11.9805 7.76785 9.31931 -0.0204029 -0.00535025 0.0046624
52 1 9.35168 10.2485 5.91485 0.0026247 0.00450522 0.000954686
53 2 9.96479 10.0076 6.6719 -0.0126084 0.00524744 -0.000990896
54 2 9.15592 11.2631 5.97125 0.0134627 -0.00032794 0.0258596
55 1 5.57922 10.966 2.68534 -0.00235502 0.00164365 -0.00051119
56 2 5.70306 9.90521 2.73114 0.00297663 -0.000666423 0.00431894
57 2 6.2764 11.2086 2.14311 -0.0186151 0.000784769 0.00864669
58 1 5.33168 10.1597 9.04103 -0.00419499 -0.000832087 -0.00305723
59 2 3.13323 12.1093 8.75846 0.0240676 -0.00251129 -0.0126654
60 2 5.9328 10.5014 9.85677 0.00689413 0.0351487 -0.00255627
61 1 7.64195 6.51668 7.15458 0.00396159 -0.00152089 -0.00289238
62 2 7.50053 6.6202 8.09803 0.0513854 -7.96871e-05 -0.0124908
63 2 6.73906 6.23021 6.92174 0.00428191 0.014749 0.00293409
64 1 4.09794 12.4124 8.43746 -0.000914854 -0.00268236 0.00641005
65 2 4.04018 12.2952 7.33535 -0.00852316 0.0306102 -0.00734255
66 2 3.95922 5.4288 6.99301 -0.00560245 -0.00667093 0.000315761
67 1 11.5708 11.4933 9.19193 -0.0141415 -0.00210232 0.00764731
68 2 11.5085 10.834 8.25519 0.001765 -0.0110131 0.00291363
69 2 11.8383 10.9327 9.91215 -0.0118999 -0.0085353 -0.00745231
70 1 10.2115 12.4409 2.19782 -0.000276894 -0.00121757 -0.000427677
71 2 9.66083 13.1107 2.69892 -0.00348087 0.0127713 0.00679256
72 2 9.63516 11.9927 11.4581 0.00910106 0.0130528 0.017465
73 1 11.3983 9.80649 7.20285 0.000589723 -0.00601487 0.00499959
74 2 11.2977 8.90069 7.49894 -0.0281372 0.00147088 0.00789401
75 2 12.0243 9.69969 5.74347 0.00609981 -0.0265569 -0.0273169
76 1 11.9823 4.75738 11.7981 -0.00375307 -5.36458e-05 0.00262891
77 2 11.6488 4.7821 10.8959 0.00112651 -0.00777501 -0.00249059
78 2 3.56498 4.3173 2.85379 0.0171674 -0.00971995 0.00282849
79 1 3.80527 6.59084 10.6815 -0.00211044 -0.00705938 5.41223e-05
80 2 3.39977 6.05566 11.3968 -0.0389139 -0.00136049 0.00806897
81 2 4.71885 11.3135 8.7453 -0.0315 0.0176777 -0.0402122
82 1 5.48042 4.79451 9.616 -0.00188666 0.0106698 0.0114555
83 2 4.98936 13.8111 9.64237 0.00982196 0.00737357 -0.000234859
84 2 4.87599 5.42073 10.1394 -0.00393108 -0.00177843 -0.00412942
85 1 10.7342 4.86352 8.77689 -0.0100706 -0.00201732 0.00419545
86 2 9.90585 4.51258 9.16134 0.0208272 -0.00352591 -0.00917971
87 2 11.5374 13.8293 2.26767 0.0108192 -0.00942931 -0.00805976
88 1 8.3994 12.781 6.12973 0.00576494 -0.00301172 0.00139608
89 2 7.52663 12.6105 5.83455 0.00980439 0.00860206 0.0218541
90 2 8.65566 13.655 5.6514 -0.00600141 -0.00232505 -0.0202185
91 1 5.08047 8.16322 5.51933 -0.00104691 0.00413574 0.00171573
92 2 3.51113 8.82835 5.24433 -0.00354584 0.00978094 -0.00370511
93 2 5.48403 8.59465 6.33714 0.00723324 0.0128229 -0.0260561
94 1 4.85681 5.75965 7.15662 -0.00371693 0.0030843 -0.00927871
95 2 5.12567 5.4966 8.09717 0.00260641 0.0126401 -0.0136667
96 2 4.87129 7.2937 6.01988 0.00754829 0.0012467 -0.0220728
ITEM: TIMESTEP
2
ITEM: NUMBER OF ATOMS
96
ITEM: BOX BOUNDS pp pp pp
2.9236100000000000e+00 1.2773600000000000e+01
4.0306300000000004e+00 1.3880599999999999e+01
2.1372399999999998e+00 1.1987200000000000e+01
ITEM: ATOMS id type x y z vx vy vz
1 1 8.50172 4.60717 3.17618 -0.00166905 0.00169956 -0.0036763
2 2 7.92652 4.89262 2.4688 -0.00323194 0.021552 -0.0041603
3 2 10.6544 4.58306 7.8081 0.00486475 0.0286934 0.00326586
4 1 12.4665 9.48117 10.7204 0.00413311 0.00308613 -0.004678
5 2 12.2561 9.24016 11.6256 -0.00277248 -0.0295166 -0.0110945
6 2 3.61635 9.47462 10.7779 -0.000341062 -0.0112373 0.0150201
7 1 11.1776 7.69171 3.37329 0.00402799 -0.00526647 -0.0026451
8 2 10.6733 7.26458 4.09813 -0.00307496 0.0289343 -0.00495908
9 2 7.20692 8.30498 7.28608 -0.000350935 0.0228367 -0.0064237
10 1 7.02901 9.27938 7.0919 6.75822e-05 0.0074721 -0.00185697
11 2 7.95766 9.64166 6.85252 0.0221676 0.00115514 0.00539788
12 2 6.08396 9.95964 8.39823 0.0203014 -0.0208736 -0.0103866
13 1 5.66204 8.21559 2.5574 0.00202655 -0.00207623 -0.00297742
14 2 6.59374 7.87597 2.57078 0.0239483 -0.0143142 0.0102208
15 2 5.36398 8.00144 3.5203 0.00860326 0.0191546 0.023153
16 1 8.53662 7.60592 2.35344 0.00632356 0.00392535 -0.000310482
17 2 9.23808 7.61758 3.02383 0.0185914 -0.0190279 0.0221277
18 2 8.61856 6.72126 11.8146 -0.0248302 0.00157418 0.00639954
19 1 4.5725 4.42958 2.79846 -0.00261769 -0.00674044 0.00250434
20 2 4.82159 13.6366 11.9235 -0.0227279 0.00826132 0.0114984
21 2 4.37046 7.15997 11.1954 0.00111445 -0.0174918 -0.00276507
22 1 9.27816 8.93746 9.88451 0.000670328 0.0012333 -0.00162203
23 2 9.11676 8.3204 10.6138 0.0208675 0.00112378 0.012566
24 2 9.91273 8.54576 9.26963 -0.00863626 0.0131785 -0.0146232
25 1 12.639 9.4692 4.91006 0.00121109 -0.00308219 -0.00754678
26 2 3.12263 11.4446 5.46081 0.0128169 0.0170117 0.000662199
27 2 5.41812 13.4414 3.90555 -0.0170018 -0.0101771 0.0189645
28 1 9.7636 5.9757 5.09071 0.000359235 -0.00628842 -0.00128483
29 2 9.47092 5.42934 4.30041 -0.0166735 0.0213528 -0.033081
30 2 8.90922 6.43583 5.36539 0.00608905 0.00448824 0.0203104
31 1 3.53364 12.2371 5.81282 0.00733299 -0.00121283 0.00193436
32 2 12.4063 13.6946 6.29167 -0.00927022 0.0211585 0.00214835
33 2 4.43373 12.4455 5.22502 -0.00787603 -0.00344998 -0.011302
34 1 8.09396 5.35238 10.4565 0.00352117 -0.000872926 0.0020373
35 2 7.26312 5.678 10.0283 0.00148461 0.00797856 -0.0149191
36 2 8.07857 4.49215 10.1159 -0.00730206 0.0038577 -0.0211437
37 1 7.48715 10.8605 10.5908 0.00320791 -0.00250399 0.0026693
38 2 7.7763 11.6842 10.2268 0.0199829 0.0181078 0.0166093
39 2 8.15916 10.1209 10.4417 0.0239712 -0.00296206 0.00861721
40 1 12.1508 4.73642 6.44286 0.00494483 0.00287295 0.000297927
41 2 5.91902 11.8165 4.09633 -0.0184161 -0.0344839 -0.013162
42 2 11.3908 4.90675 5.89233 0.00154373 -0.0157989 -0.0228128
43 1 5.91691 12.724 4.53031 -0.0063281 0.00105283 -0.000852035
44 2 11.982 8.03736 3.82652 0.0214424 -0.0129384 0.01561
45 2 7.84141 4.26461 3.77983 -0.00789132 0.0237095 -0.0329629
46 1 9.03035 12.7103 9.105 -0.000554199 -0.000162217 -0.000675515
47 2 8.83232 12.8066 8.13295 0.0123985 0.00706907 -0.00282155
48 2 9.96778 12.3898 9.11932 0.0245062 -0.0216899 0.00900225
49 1 11.3731 7.49811 8.69336 -0.00249215 3.83383e-05 -0.000589894
50 2 11.1505 6.53033 8.72171 0.00820969 0.0103077 0.012247
51 2 11.9719 7.76498 9.32367 -0.0136896 -0.00592252 0.0129746
52 1 9.35282 10.2508 5.91526 0.0019594 0.00488394 0.000712776
53 2 9.95933 10.0103 6.67208 -0.00884556 0.00557719 0.00193845
54 2 9.16302 11.2614 5.98414 0.0147294 -0.00629056 0.0254412
55 1 5.57795 10.9666 2.68516 -0.00272882 0.000785901 -0.000176395
56 2 5.70378 9.90636 2.73349 -8.41728e-05 0.00502228 0.005055
57 2 6.26896 11.2102 2.14589 -0.0106354 0.00574439 0.00206328
58 1 5.32967 10.1593 9.03969 -0.00377775 -0.00101716 -0.00232019
59 2 3.14447 12.108 8.75229 0.0200485 -0.00257114 -0.0117204
60 2 5.93552 10.5186 9.85524 0.00361781 0.0335502 -0.00416925
61 1 7.64386 6.51595 7.15316 0.00373228 -0.00140014 -0.00283281
62 2 7.52702 6.62002 8.09202 0.0542405 -0.000645855 -0.01099
63 2 6.74157 6.23751 6.92259 0.00541862 0.0143755 0.000707253
64 1 4.0975 12.411 8.44057 -0.000845716 -0.00264329 0.00601509
65 2 4.03564 12.3105 7.33284 -0.00957051 0.0307186 -0.002981
66 2 3.95627 5.42522 6.99339 -0.00607212 -0.00755716 0.00119987
67 1 11.5638 11.4923 9.19563 -0.0141508 -0.00178363 0.00711674
68 2 11.5094 10.8281 8.25781 0.00167403 -0.0126117 0.00741707
69 2 11.8326 10.9272 9.90915 -0.010859 -0.0133332 -0.004335
70 1 10.2114 12.4404 2.1977 -0.000193671 -0.000982916 -1.23906e-05
71 2 9.65934 13.1162 2.70137 -0.00221136 0.00874616 0.00284049
72 2 9.63904 11.9992 11.4664 0.0058625 0.0123149 0.0150967
73 1 11.3986 9.80346 7.20533 0.000762462 -0.00611399 0.00491559
74 2 11.284 8.90203 7.5034 -0.026665 0.00383174 0.00998014
75 2 12.0279 9.6859 5.7295 0.00791464 -0.0282508 -0.0281047
76 1 11.9804 4.75737 11.7994 -0.00383621 -6.42866e-06 0.00256196
77 2 11.6494 4.77861 10.894 0.00133933 -0.00615338 -0.00507547
78 2 3.57503 4.31265 2.85521 0.0221015 -0.00884802 0.00310059
79 1 3.80422 6.58732 10.6816 -0.00215133 -0.00704942 0.000151342
80 2 3.38011 6.05477 11.4005 -0.0393842 -0.00183293 0.00613075
81 2 4.70321 11.3229 8.72449 -0.0306337 0.0193199 -0.0428289
82 1 5.47946 4.79985 9.62175 -0.00190732 0.0106901 0.011505
83 2 4.99449 13.8146 9.64161 0.0106541 0.0065624 -0.0027357
84 2 4.8741 5.42026 10.1374 -0.00392562 0.00014233 -0.00385092
85 1 10.7291 4.86245 8.77891 -0.0101492 -0.00220356 0.00383435
86 2 9.91623 4.511 9.15707 0.0195461 -0.00325378 -0.00738702
87 2 11.5422 13.8237 2.26424 0.00831824 -0.013275 -0.00562922
88 1 8.40239 12.7796 6.13043 0.00622993 -0.002468 0.0013779
89 2 7.53049 12.6149 5.8448 0.00523495 0.00879301 0.0190894
90 2 8.65207 13.6519 5.64215 -0.00825602 -0.0100986 -0.0166357
91 1 5.07991 8.16517 5.5204 -0.00117423 0.00366571 0.00247966
92 2 3.50891 8.83433 5.24226 -0.00492757 0.0137584 -0.00454951
93 2 5.48763 8.60214 6.32221 0.00732568 0.017149 -0.0329372
94 1 4.85497 5.76122 7.15198 -0.00362094 0.00319301 -0.0092594
95 2 5.12645 5.50256 8.09004 0.000509468 0.0112206 -0.0147961
96 2 4.87486 7.29496 6.00687 0.00672422 0.00349135 -0.029397
ITEM: TIMESTEP
3
ITEM: NUMBER OF ATOMS
96
ITEM: BOX BOUNDS pp pp pp
2.9236100000000000e+00 1.2773600000000000e+01
4.0306300000000004e+00 1.3880599999999999e+01
2.1372399999999998e+00 1.1987200000000000e+01
ITEM: ATOMS id type x y z vx vy vz
1 1 8.50086 4.60797 3.17438 -0.00176011 0.00150641 -0.00355961
2 2 7.92491 4.90406 2.4653 -0.00293733 0.0241918 -0.0098155
3 2 10.6577 4.5982 7.81114 0.00835912 0.0315835 0.00844726
4 1 12.4687 9.48269 10.7181 0.00466716 0.00298367 -0.00442971
5 2 12.2543 9.22538 11.6198 -0.00427007 -0.0295183 -0.012243
6 2 3.61449 9.46912 10.785 -0.00684035 -0.0106976 0.0131985
7 1 11.1797 7.68909 3.37202 0.00423013 -0.00520734 -0.00244543
8 2 10.6717 7.27862 4.0956 -0.00336378 0.0270107 -0.00488369
9 2 7.20665 8.31717 7.28245 -0.000823175 0.0252906 -0.00791646
10 1 7.02916 9.28308 7.091 0.000541393 0.0073702 -0.0017458
11 2 7.96775 9.64222 6.85484 0.0178134 0.00115783 0.00394066
12 2 6.09388 9.94918 8.39155 0.018547 -0.020802 -0.0154909
13 1 5.66306 8.21451 2.55607 0.00210109 -0.00227151 -0.00231048
14 2 6.60507 7.86946 2.57558 0.0205064 -0.0113892 0.00890545
15 2 5.36882 8.01172 3.52992 0.0108238 0.0219873 0.0147457
16 1 8.53977 7.60788 2.35329 0.00629359 0.00390101 -0.000249115
17 2 9.24752 7.60828 3.03457 0.018459 -0.0181849 0.0201389
18 2 8.60598 6.72186 11.8177 -0.0254352 0.000794028 0.0060227
19 1 4.57121 4.42613 2.79967 -0.00251097 -0.00701737 0.00238552
20 2 4.80996 13.6416 11.93 -0.0232989 0.0114116 0.0137959
21 2 4.37169 7.15192 11.194 0.00385594 -0.0146864 -0.00239227
22 1 9.27846 8.93812 9.88367 0.000510073 0.00141306 -0.00173226
23 2 9.12736 8.32044 10.6206 0.0216481 -0.000824415 0.0145264
24 2 9.90897 8.55182 9.26241 -0.00638002 0.0109756 -0.0142013
25 1 12.6396 9.46762 4.90632 0.00129037 -0.00321347 -0.00744218
26 2 3.12933 11.4523 5.4609 0.0135895 0.0131836 -0.00043551
27 2 5.41032 13.4346 3.91561 -0.0141646 -0.0170857 0.0211126
28 1 9.76368 5.9726 5.09006 -4.59414e-05 -0.00612405 -0.00134417
29 2 9.46323 5.4406 4.28449 -0.0140192 0.0239311 -0.0301675
30 2 8.91383 6.43728 5.37578 0.0124627 0.00118519 0.021111
31 1 3.53747 12.2365 5.81372 0.0079579 -0.000958838 0.00169245
32 2 12.402 13.7038 6.2924 -0.00744904 0.0147117 0.000818637
33 2 4.42864 12.4431 5.22043 -0.0121354 -0.00587773 -0.00708674
34 1 8.09563 5.35206 10.4575 0.00315146 -0.000431148 0.00186947
35 2 7.26451 5.68202 10.0216 0.00443339 0.00800205 -0.011633
36 2 8.07563 4.49226 10.105 -0.00438278 -0.00306864 -0.0225429
37 1 7.48867 10.8592 10.5922 0.00289986 -0.00270197 0.00285599
38 2 7.78757 11.6937 10.2341 0.0248099 0.0191534 0.0129803
39 2 8.17102 10.1204 10.4457 0.0230961 0.00121258 0.00723564
40 1 12.1532 4.73797 6.44304 0.00482208 0.00334717 0.000433598
41 2 5.90948 11.7998 4.08903 -0.0197414 -0.0310725 -0.0155707
42 2 11.391 4.89929 5.88041 -0.000541595 -0.0139298 -0.0245359
43 1 5.91365 12.7246 4.52992 -0.00670707 0.00129892 -0.000719892
44 2 11.9922 8.03138 3.83408 0.0188318 -0.0111518 0.0142042
45 2 7.83719 4.27586 3.76405 -0.00946478 0.0209018 -0.0294036
46 1 9.03007 12.7102 9.10459 -0.000520644 -0.000164137 -0.000950877
47 2 8.83854 12.8099 8.13252 0.0125058 0.00602595 0.00113203
48 2 9.97957 12.3789 9.12402 0.021733 -0.0214901 0.00975873
49 1 11.3717 7.49817 8.6929 -0.0030302 0.000224071 -0.00123006
50 2 11.1551 6.53509 8.72838 0.00989838 0.0084605 0.0143771
51 2 11.9668 7.76193 9.33229 -0.00692141 -0.00619897 0.0212981
52 1 9.35364 10.2533 5.91556 0.00130766 0.00522141 0.000483022
53 2 9.95594 10.0131 6.67384 -0.00443029 0.00529937 0.00525921
54 2 9.17065 11.2568 5.9967 0.0154936 -0.011242 0.0245513
55 1 5.57649 10.9668 2.68516 -0.00314434 -4.72229e-05 0.000194514
56 2 5.70298 9.91024 2.73619 -0.00300256 0.010157 0.00570832
57 2 6.26577 11.2143 2.14518 -0.00209049 0.010817 -0.00494521
58 1 5.3279 10.1587 9.03871 -0.00320262 -0.00115667 -0.00162486
59 2 3.15328 12.1067 8.74674 0.0145247 -0.00269502 -0.0102147
60 2 5.93642 10.5349 9.8526 -0.000401716 0.0312722 -0.00701439
61 1 7.64568 6.51528 7.15174 0.00358696 -0.00128028 -0.00286737
62 2 7.55477 6.61956 8.08704 0.0564358 -0.00121384 -0.008515
63 2 6.74448 6.24459 6.92244 0.005879 0.0138909 -0.00104274
64 1 4.09709 12.4097 8.44348 -0.00074642 -0.00256444 0.00561154
65 2 4.03061 12.3259 7.33236 -0.0104274 0.0306631 0.000804793
66 2 3.95315 5.42124 6.99421 -0.00625415 -0.00824869 0.00204373
67 1 11.5567 11.4915 9.19905 -0.0141548 -0.00149151 0.0065568
68 2 11.5102 10.8214 8.2626 0.00134799 -0.0141699 0.0114926
69 2 11.8274 10.9193 9.90782 -0.00986595 -0.0177782 -0.000876658
70 1 10.2114 12.44 2.19781 -7.11618e-05 -0.000671003 0.000486808
71 2 9.65862 13.1195 2.70176 -0.000492596 0.00430686 -0.00134494
72 2 9.64102 12.005 11.4732 0.00162961 0.0106944 0.0116058
73 1 11.399 9.80038 7.20777 0.000921891 -0.00617322 0.00483244
74 2 11.271 8.90452 7.50892 -0.0250832 0.00598284 0.0121378
75 2 12.0322 9.67143 5.71537 0.00864781 -0.0292789 -0.027934
76 1 11.9785 4.75738 11.8007 -0.00394519 3.27959e-05 0.00245691
77 2 11.6502 4.77595 10.8909 0.00166453 -0.00450475 -0.00718834
78 2 3.58708 4.30845 2.85689 0.0250008 -0.00796442 0.00390083
79 1 3.80312 6.58379 10.6817 -0.00226746 -0.00707671 0.000289313
80 2 3.36039 6.05383 11.4029 -0.0391169 -0.00157179 0.00335456
81 2 4.68822 11.3328 8.70247 -0.0289313 0.0200558 -0.0449856
82 1 5.47851 4.8052 9.6275 -0.00186524 0.0106737 0.0114982
83 2 5.00001 13.8176 9.63963 0.0113474 0.00564382 -0.00505756
84 2 4.87206 5.42088 10.1356 -0.00452754 0.00250154 -0.00300469
85 1 10.7241 4.86131 8.78073 -0.0100697 -0.00230395 0.00345695
86 2 9.9254 4.50933 9.15395 0.0160858 -0.00391927 -0.00467476
87 2 11.5458 13.8161 2.26204 0.00599681 -0.0168923 -0.00323927
88 1 8.40563 12.7785 6.13111 0.00670847 -0.00189712 0.00135799
89 2 7.53187 12.6193 5.85364 0.000100241 0.00861649 0.0162822
90 2 8.64741 13.6449 5.63476 -0.010205 -0.0177522 -0.0129259
91 1 5.07929 8.16688 5.52181 -0.00130281 0.00323024 0.00306766
92 2 3.5062 8.84211 5.23979 -0.00541601 0.0168686 -0.00531835
93 2 5.49136 8.6118 6.3042 0.00774592 0.021403 -0.0382561
94 1 4.85319 5.76285 7.14736 -0.00353716 0.00329263 -0.00924268
95 2 5.12618 5.50782 8.08237 -0.00149757 0.00983647 -0.0158073
96 2 4.87801 7.2972 5.99048 0.00589856 0.00508316 -0.0354078
ITEM: TIMESTEP
4
ITEM: NUMBER OF ATOMS
96
ITEM: BOX BOUNDS pp pp pp
2.9236100000000000e+00 1.2773600000000000e+01
4.0306300000000004e+00 1.3880599999999999e+01
2.1372399999999998e+00 1.1987200000000000e+01
ITEM: ATOMS id type x y z vx vy vz
1 1 8.49996 4.60868 3.17262 -0.00183919 0.00136426 -0.00353697
2 2 7.92358 4.91681 2.45899 -0.00198122 0.0267224 -0.01516
3 2 10.6628 4.61465 7.81654 0.0115088 0.0339131 0.0125265
4 1 12.4712 9.48415 10.716 0.00515999 0.00285377 -0.00415382
5 2 12.2518 9.21064 11.6134 -0.00587354 -0.0294016 -0.0135606
6 2 3.60951 9.46393 10.7911 -0.0125572 -0.0100285 0.0112239
7 1 11.1819 7.68651 3.37085 0.0045236 -0.00509903 -0.00223235
8 2 10.6699 7.29159 4.09324 -0.00404103 0.0247102 -0.00431295
9 2 7.2061 8.33027 7.27817 -0.00139457 0.026392 -0.00897692
10 1 7.02955 9.28675 7.09016 0.00104817 0.00735887 -0.00165442
11 2 7.97547 9.64281 6.85646 0.0128774 0.00131984 0.00254154
12 2 6.10251 9.93883 8.38274 0.0151787 -0.0203951 -0.0188457
13 1 5.66414 8.21332 2.55509 0.00226622 -0.00250599 -0.00158083
14 2 6.61425 7.86458 2.57968 0.0155763 -0.00786844 0.00739061
15 2 5.3748 8.02343 3.53505 0.0130809 0.0247951 0.00550662
16 1 8.54291 7.60982 2.3532 0.00633615 0.00388091 -0.000112961
17 2 9.25654 7.59939 3.04397 0.0170368 -0.0173682 0.016805
18 2 8.59312 6.72205 11.8206 -0.0259042 4.49203e-07 0.00562343
19 1 4.56998 4.42257 2.80084 -0.00233298 -0.0072005 0.00231239
20 2 4.79829 13.648 11.9373 -0.0228856 0.013314 0.0146316
21 2 4.37432 7.14528 11.193 0.00659799 -0.0119484 -0.00172644
22 1 9.27867 8.93887 9.88278 0.000339338 0.00156871 -0.00180464
23 2 9.1384 8.31958 10.6283 0.0225817 -0.0023387 0.0158588
24 2 9.90635 8.55674 9.25543 -0.00415064 0.00868054 -0.0136173
25 1 12.6403 9.46598 4.90262 0.00135132 -0.00331822 -0.00740927
26 2 3.13622 11.4578 5.46037 0.0135718 0.0083725 -0.00174303
27 2 5.40395 13.4243 3.92666 -0.0113801 -0.0235221 0.0228546
28 1 9.76355 5.96958 5.08937 -0.000463793 -0.00597417 -0.00143598
29 2 9.45691 5.45327 4.27024 -0.0112442 0.0268764 -0.0265361
30 2 8.92168 6.43701 5.38651 0.0187997 -0.00229642 0.0217424
31 1 3.5416 12.2361 5.81451 0.00856004 -0.000668887 0.00147893
32 2 12.3988 13.7093 6.29248 -0.00504314 0.00719567 -0.000397805
33 2 4.4216 12.4396 5.21793 -0.0155594 -0.00790691 -0.00304204
34 1 8.09711 5.35195 10.4584 0.00273728 -4.15006e-05 0.00164291
35 2 7.26755 5.68601 10.0167 0.00792053 0.00787797 -0.00791293
36 2 8.07419 4.48908 10.0934 -0.00134021 -0.00897351 -0.0234444
37 1 7.49005 10.8578 10.5937 0.00266717 -0.00282634 0.00298408
38 2 7.80111 11.7033 10.2398 0.0289769 0.0186237 0.0100473
39 2 8.18226 10.1221 10.449 0.0215468 0.00586412 0.00599676
40 1 12.1556 4.73977 6.44329 0.00460353 0.00387707 0.00051503
41 2 5.89928 11.7854 4.08076 -0.0209859 -0.0256983 -0.0170685
42 2 11.3903 4.89282 5.8678 -0.00180185 -0.0118192 -0.0254591
43 1 5.9102 12.7253 4.52959 -0.0070468 0.00137203 -0.000616969
44 2 12.0008 8.02621 3.84073 0.0152384 -0.00972783 0.0120444
45 2 7.83194 4.28551 3.75043 -0.0119245 0.0174379 -0.0245829
46 1 9.02983 12.7101 9.10405 -0.000377165 -0.000222387 -0.00120512
47 2 8.84482 12.8127 8.13408 0.0125836 0.00494454 0.00493762
48 2 9.98951 12.3683 9.12908 0.0172874 -0.0207113 0.0104174
49 1 11.37 7.49833 8.69213 -0.00350962 0.000440123 -0.00180929
50 2 11.1604 6.53879 8.73609 0.011306 0.00617578 0.0163438
51 2 11.965 7.75878 9.34497 -0.000777787 -0.00643032 0.0288786
52 1 9.35413 10.256 5.91575 0.000686565 0.00549545 0.000277185
53 2 9.9549 10.0156 6.67734 0.000447712 0.00445059 0.0087278
54 2 9.17852 11.2501 6.00869 0.0157079 -0.0148791 0.0232236
55 1 5.57481 10.9666 2.68535 -0.00355506 -0.000811618 0.000557616
56 2 5.70077 9.91652 2.7392 -0.00563668 0.0146247 0.00623756
57 2 6.26687 11.221 2.14094 0.00616846 0.0155113 -0.011696
58 1 5.32646 10.1581 9.03807 -0.00248582 -0.00124246 -0.00099537
59 2 3.15899 12.1053 8.74208 0.0077998 -0.00287075 -0.00820907
60 2 5.93512 10.5499 9.84823 -0.00501315 0.0282876 -0.0110153
61 1 7.64745 6.51467 7.15029 0.00352342 -0.0011608 -0.00298341
62 2 7.58345 6.61881 8.0835 0.057957 -0.00182848 -0.00536717
63 2 6.74745 6.2514 6.92155 0.00569014 0.013325 -0.00220614
64 1 4.09675 12.4085 8.44618 -0.000622214 -0.00245924 0.00520699
65 2 4.02521 12.3412 7.33364 -0.0110727 0.0305072 0.00405798
66 2 3.95001 5.41697 6.99543 -0.00615549 -0.00872421 0.00278631
67 1 11.5496 11.4908 9.20218 -0.0141461 -0.00124725 0.00599428
68 2 11.5107 10.8139 8.26931 0.000770961 -0.0156311 0.0150274
69 2 11.8227 10.9094 9.90827 -0.00904469 -0.021554 0.00264357
70 1 10.2114 12.4397 2.19819 8.76157e-05 -0.000314038 0.00103559
71 2 9.65885 13.1205 2.70003 0.0014362 -0.000196254 -0.00548228
72 2 9.64067 12.0098 11.478 -0.00328192 0.00838953 0.00726711
73 1 11.3995 9.79728 7.21016 0.00106736 -0.00618696 0.00475464
74 2 11.2589 8.90801 7.51554 -0.023424 0.00779257 0.0143786
75 2 12.0365 9.65662 5.70157 0.00819581 -0.0296222 -0.0267738
76 1 11.9765 4.7574 11.8019 -0.00409454 4.3142e-05 0.00231313
77 2 11.6511 4.77411 10.8868 0.00213017 -0.00288938 -0.00862069
78 2 3.60003 4.30469 2.85911 0.0255875 -0.00709381 0.00525743
79 1 3.80195 6.58024 10.6818 -0.00244556 -0.00712425 0.000463297
80 2 3.34099 6.0532 11.4038 -0.03813 -0.000671647 -7.82898e-05