ITEM: TIMESTEP
0
ITEM: NUMBER OF ATOMS
96
ITEM: BOX BOUNDS pp pp pp
2.9236100000000000e+00 1.2773600000000000e+01
4.0306300000000004e+00 1.3880599999999999e+01
2.1372399999999998e+00 1.1987200000000000e+01
ITEM: ATOMS id type x y z vx vy vz
1 1 7.23494 13.3848 3.55112 0.00393752 0.00154075 0.00474722
2 2 6.58688 12.6692 3.44637 -0.000721406 0.011513 0.016982
3 2 9.45207 13.1601 11.3535 -0.012915 -0.00185466 0.0139499
4 1 12.5795 9.80908 2.759 -0.00099024 0.00434401 -0.00380392
5 2 11.8697 10.3941 2.38965 0.0208756 -0.00367971 0.013609
6 2 12.2397 8.95585 3.14943 0.0210256 0.0158359 -0.0086214
7 1 12.1062 7.51306 4.29168 0.00136029 -0.00433771 -0.000492398
8 2 11.0876 7.35941 4.26673 -0.0177106 0.00270891 0.00473066
9 2 7.72159 8.404 7.10273 -0.000186936 -0.0222915 -0.00420105
10 1 7.00774 8.44603 7.7097 -0.000284618 0.0024441 -0.000950008
11 2 6.25258 8.15435 7.20631 -0.0100626 -0.0054746 -0.0171337
12 2 6.68484 9.51341 9.13571 -0.0141077 0.0159212 -0.000280983
13 1 7.00737 8.59045 2.62756 0.00473401 0.0108727 -0.00135636
14 2 6.65394 9.00887 11.6731 0.0224115 0.00288827 -0.0186023
15 2 7.34256 7.71733 2.43981 0.00683665 0.0416762 0.00442808
16 1 9.69916 7.18472 10.9634 0.00141951 -0.00630699 -0.00177602
17 2 10.1606 7.16165 11.8369 -0.0187774 0.0059916 0.0160328
18 2 8.82274 6.74663 11.1512 0.0107963 -0.00559415 0.00461244
19 1 4.90867 5.7716 10.6569 -0.00216055 -0.000307394 -0.00142959
20 2 4.50973 5.94389 11.5336 -0.0039445 -0.00504416 0.00084656
21 2 11.1516 8.22568 10.4817 -0.0174817 0.0103274 0.0117482
22 1 10.0211 10.2358 11.7134 0.00232211 -0.00233513 -0.00207936
23 2 9.67924 10.4554 2.73648 -0.00368636 -0.0123355 0.000360373
24 2 9.62845 9.35053 11.6001 -0.0177841 0.00588296 0.0278363
25 1 3.57857 8.68407 6.32325 0.00748244 0.00532055 -0.00124459
26 2 3.86946 9.4728 5.86388 -0.00652088 0.00944815 0.00897908
27 2 3.2405 6.23804 3.91566 -0.00856613 0.000341762 0.00880305
28 1 9.44102 7.21129 4.10243 -0.000131744 -0.00282991 0.00337297
29 2 9.15337 6.51278 4.75005 0.00800857 -0.0150488 -0.0137784
30 2 9.02465 7.97083 4.50886 -0.0113242 -0.00623508 -0.0071374
31 1 4.1728 11.2168 5.66479 -0.00505621 -0.000482237 0.00109652
32 2 3.5314 12.0223 5.5897 -0.0292725 -0.00311652 0.0160826
33 2 4.70247 11.3027 4.84743 0.00901936 -0.0159905 0.0141137
34 1 7.56209 5.14708 8.9652 -0.000788067 -0.00330465 -0.00336735
35 2 7.64401 4.20236 9.13345 -6.84842e-05 -0.0066398 -0.0160715
36 2 6.95073 5.45126 9.61117 -0.0116816 -0.00140984 0.0189873
37 1 8.14392 11.8179 10.5577 -0.000544093 0.00488528 0.00149664
38 2 9.19971 12.0798 9.07882 0.0107778 -0.000842525 0.0162924
39 2 8.64534 11.0873 11.0466 0.00257808 -0.0222707 -0.035274
40 1 3.05859 13.5065 5.20115 -0.00749322 0.000221089 0.00829763
41 2 3.74389 4.60866 4.05286 0.0157657 -0.00601166 -0.0155551
42 2 11.9385 13.4762 5.08785 -0.00593141 -0.0195169 -0.00494745
43 1 3.96667 5.55697 3.69525 0.0022432 -0.00265273 -0.00115549
44 2 12.3714 7.89382 5.1706 -0.008512 -0.00308639 0.0356375
45 2 8.04855 12.8729 3.55201 0.0201748 -0.0356878 -0.016374
46 1 9.74315 12.3298 8.3174 0.00172323 0.00611663 -0.00057115
47 2 8.53057 12.6154 7.08176 -0.00876174 -0.0276903 0.0143172
48 2 10.365 11.5795 8.16906 0.0139514 -0.00397062 0.000948419
49 1 10.1598 6.50583 8.18389 0.00100929 0.00636279 0.00155759
50 2 9.36736 5.85193 8.04305 -0.00935091 0.0150606 -0.0394934
51 2 10.0348 6.85918 9.02107 0.00921354 -0.00397957 -0.0153607
52 1 9.08285 10.9529 4.46818 -0.00922621 0.00573941 0.0076524
53 2 9.25541 10.2442 4.99883 -0.0211075 0.00079888 0.00503071
54 2 8.70903 11.589 5.09154 -0.00907298 -0.0119233 0.0048238
55 1 5.12789 11.1357 3.25355 0.00561903 -0.00174425 0.000382824
56 2 5.71987 10.3368 3.27455 -0.0085832 -0.0327073 -0.0126114
57 2 4.25721 10.704 3.00339 -0.0260992 -0.00800162 0.0132758
58 1 6.24902 10.1424 9.77338 0.00358703 0.00164721 0.00335396
59 2 4.51221 13.695 7.7842 0.00594835 0.028581 0.00551808
60 2 7.31827 11.3639 10.243 0.0018135 0.00310307 0.00189268
61 1 7.83093 5.53669 6.40604 0.00339501 -0.00336103 -0.00684239
62 2 7.71567 5.67094 7.41194 0.0126868 -0.00429886 0.00321437
63 2 6.90149 5.80166 6.12236 -0.0164472 0.00685764 0.00802014
64 1 5.32351 12.3958 7.90037 -0.00333544 -0.00336182 -0.000496818
65 2 4.92506 11.8645 7.15692 -0.00960813 -0.0465137 -0.00373008
66 2 3.26343 4.26313 6.36236 -0.010527 0.00732131 -0.0296541
67 1 11.3749 9.96227 7.75495 -0.000495722 -0.00522552 -0.0023809
68 2 11.9429 9.53351 7.08966 -0.0387842 -0.0221892 -0.00729758
69 2 11.6717 9.52311 8.57585 -0.0294588 -0.00313084 0.000503863
70 1 10.2941 4.23434 4.56784 0.00476619 -0.00260055 -0.00373274
71 2 10.2465 4.18325 3.57912 -0.00118841 -0.00910071 -0.0242863
72 2 9.43591 4.56227 4.81654 0.013489 0.00497033 -0.0473782
73 1 9.42162 8.76038 6.25188 0.00215715 0.00165386 0.00285223
74 2 9.59262 7.86999 6.59893 0.00385786 -0.0119817 -0.00237859
75 2 9.90949 9.33151 6.84109 0.00111059 -0.0128906 0.00312139
76 1 12.1584 4.91756 9.70491 -0.00282875 -0.00103904 0.0013413
77 2 11.5359 5.59686 9.25043 0.0272137 -0.00219323 0.0238797
78 2 4.11713 5.52424 10.1073 0.00880959 0.0032568 0.00797418
79 1 11.916 8.70734 10.122 -0.00451122 0.0109892 -0.00130664
80 2 12.1973 9.35031 10.7943 -0.00553622 -0.000353156 0.00695486
81 2 5.63554 10.6193 9.17996 0.0165103 -0.0351774 -0.0169436
82 1 7.42596 5.8589 11.8159 0.00263688 -0.00239696 -0.00148882
83 2 7.2946 5.01074 2.428 -0.022204 0.0328119 -0.0107656
84 2 6.52679 6.04802 11.4164 0.0216478 0.0222257 -0.0112976
85 1 10.1035 13.8105 11.6025 -0.00169822 -0.00312437 0.00349659
86 2 9.64315 4.81199 11.4205 -0.0155609 -0.0173398 -0.00355352
87 2 11.5272 4.39113 10.2766 0.00265381 -0.00626254 -0.0419659
88 1 7.71151 12.7828 6.57262 -0.0018596 -0.00161691 -0.00303167
89 2 6.30083 12.6281 7.51947 -0.0171048 -0.00998692 -0.0141951
90 2 7.78282 13.7702 6.22292 0.0154965 -0.0260804 -0.0158259
91 1 5.34847 6.50184 5.8223 -0.00234472 -0.000307783 0.00778422
92 2 4.36445 8.05621 6.32565 0.00193846 -0.00201435 -0.0208154
93 2 5.00118 5.90576 6.46381 -0.00820797 0.0303452 0.014302
94 1 3.80021 4.69342 7.49561 0.00340165 -0.0019778 -0.00449702
95 2 3.0743 4.54877 8.2342 0.0197855 -0.00161371 0.0386566
96 2 4.87015 6.2636 4.88333 0.0047538 0.0101021 0.00289531
ITEM: TIMESTEP
1
ITEM: NUMBER OF ATOMS
96
ITEM: BOX BOUNDS pp pp pp
2.9236100000000000e+00 1.2773600000000000e+01
4.0306300000000004e+00 1.3880599999999999e+01
2.1372399999999998e+00 1.1987200000000000e+01
ITEM: ATOMS id type x y z vx vy vz
1 1 7.23691 13.3855 3.55348 0.00401028 0.00130261 0.00469711
2 2 6.58656 12.6755 3.45485 -0.000716752 0.0136293 0.016935
3 2 9.44529 13.1588 11.3603 -0.0139581 -0.00329644 0.0131654
4 1 12.579 9.81127 2.75707 -0.000826047 0.00441482 -0.00388888
5 2 11.8799 10.3909 2.39725 0.0188787 -0.00853389 0.0163313
6 2 12.25 8.96479 3.14484 0.0196658 0.0191093 -0.0093348
7 1 12.1068 7.51093 4.29138 0.00120304 -0.00416183 -0.00062067
8 2 11.079 7.3608 4.26964 -0.0159204 0.00291008 0.00683822
9 2 7.72264 8.39295 7.09977 0.00414287 -0.021894 -0.00733032
10 1 7.00753 8.44726 7.70929 -0.000560538 0.00245793 -0.00075216
11 2 6.24723 8.15126 7.19748 -0.0106869 -0.00661156 -0.0176738
12 2 6.67773 9.52155 9.13605 -0.0136337 0.0159606 0.00159406
13 1 7.0097 8.59598 2.62691 0.00454239 0.01131 -0.00123797
14 2 6.66562 9.00947 11.6639 0.0242504 -0.000379458 -0.0181439
15 2 7.3459 7.73805 2.44147 0.00700673 0.0401127 0.00205039
16 1 9.69987 7.18155 10.9626 0.00145989 -0.00635056 -0.001512
17 2 10.1504 7.16454 11.8444 -0.0219063 0.005645 0.013696
18 2 8.82888 6.74421 11.1534 0.0133622 -0.00420652 0.00383564
19 1 4.90752 5.77146 10.6562 -0.00239722 -0.000262129 -0.00141428
20 2 4.50795 5.94099 11.5336 -0.00309806 -0.00655137 -0.000820658
21 2 11.1427 8.23102 10.4876 -0.0175228 0.0112408 0.0114276
22 1 10.0222 10.2346 11.7123 0.0021317 -0.00246782 -0.00212109
23 2 9.67747 10.4498 2.73742 -0.00318602 -0.00966183 0.00323596
24 2 9.61996 9.35332 11.6136 -0.016076 0.00514721 0.0256687
25 1 3.58233 8.6866 6.32267 0.00752581 0.00476319 -0.00109125
26 2 3.86658 9.47863 5.86784 -0.0049137 0.0139419 0.00677377
27 2 3.23619 6.2369 3.92011 -0.00853628 -0.00501037 0.00895569
28 1 9.44093 7.20978 4.10414 -0.000218158 -0.00319905 0.00345709
29 2 9.15784 6.50563 4.74238 0.00969648 -0.0135739 -0.0166149
30 2 9.01905 7.96858 4.50529 -0.0111261 -0.00287531 -0.0069358
31 1 4.17024 11.2166 5.66543 -0.00519151 -0.000383643 0.00150624
32 2 3.51616 12.0212 5.59798 -0.0310659 -0.00176233 0.0166731
33 2 4.70822 11.2944 4.85331 0.0136845 -0.0168231 0.00933917
34 1 7.56175 5.1454 8.96354 -0.000607893 -0.00339378 -0.00323367
35 2 7.64384 4.19899 9.1255 -0.000642644 -0.00670094 -0.0157173
36 2 6.94411 5.45062 9.6214 -0.014108 -0.00153366 0.0211675
37 1 8.1437 11.8203 10.5585 -0.000334143 0.00475951 0.00158394
38 2 9.20469 12.0792 9.08775 0.00939911 -0.00135173 0.0190292
39 2 8.64691 11.077 11.0286 0.00384055 -0.0188979 -0.0365711
40 1 3.05482 13.5067 5.20541 -0.00755739 0.000391458 0.00873247
41 2 3.75102 4.60675 4.0456 0.012766 -0.00145228 -0.0135145
42 2 11.9363 13.467 5.08557 -0.00324698 -0.0173175 -0.00408364
43 1 3.96787 5.55567 3.69466 0.00253903 -0.0025506 -0.00119084
44 2 12.3671 7.89233 5.18869 -0.00869508 -0.00330647 0.0355633
45 2 8.05858 12.8552 3.54392 0.0188003 -0.0341986 -0.015955
46 1 9.74405 12.3328 8.31707 0.00188824 0.0060366 -0.000723939
47 2 8.52666 12.6015 7.08954 -0.00705592 -0.0276936 0.0166435
48 2 10.3717 11.5778 8.16953 0.012353 -0.00252815 0.000961265
49 1 10.1602 6.50885 8.18452 0.000696356 0.00572219 0.000894552
50 2 9.36472 5.86132 8.02393 -0.00102423 0.0225668 -0.0366484
51 2 10.0388 6.85786 9.01518 0.00671278 -0.00118556 -0.00752331
52 1 9.07819 10.9559 4.47191 -0.00939813 0.00638104 0.00727956
53 2 9.24556 10.2419 5.00279 -0.0183397 -0.00985252 0.0106079
54 2 8.70423 11.5835 5.09388 -0.0103361 -0.00944131 0.00483256
55 1 5.13072 11.1347 3.25371 0.0056673 -0.00222858 0.000231938
56 2 5.71551 10.3213 3.26817 -0.00909671 -0.0287699 -0.0129198
57 2 4.24451 10.7007 3.0101 -0.023811 -0.00474563 0.0137939
58 1 6.25078 10.1432 9.77501 0.00346809 0.00151069 0.0031727
59 2 4.51506 13.7094 7.78601 0.00544789 0.0289716 0.00148125
60 2 7.31866 11.3654 10.2437 -0.000339 0.00327497 0.000659879
61 1 7.83257 5.53505 6.40262 0.00313286 -0.00318003 -0.00683433
62 2 7.72286 5.66847 7.41296 0.0159298 -0.00568227 0.000429489
63 2 6.89354 5.80506 6.12509 -0.0147028 0.00653181 0.00310864
64 1 5.32196 12.3942 7.90007 -0.00288466 -0.00327252 -0.000775592
65 2 4.91997 11.8413 7.15497 -0.0104196 -0.0456788 -0.00335722
66 2 3.25753 4.26502 6.34487 -0.0132951 8.22507e-05 -0.0402999
67 1 11.3747 9.95968 7.75373 -0.00052128 -0.00511431 -0.00248984
68 2 11.9236 9.5227 7.08548 -0.037884 -0.021346 -0.0094661
69 2 11.6567 9.52139 8.57729 -0.0302914 -0.00396156 0.00531814
70 1 10.2965 4.23303 4.56594 0.0047968 -0.0026568 -0.00394734
71 2 10.2461 4.17858 3.56736 -6.02079e-05 -0.00966881 -0.0222067
72 2 9.44229 4.56486 4.79322 0.0114728 0.00561413 -0.0453958
73 1 9.42265 8.76115 6.25329 0.00196719 0.00138326 0.00276678
74 2 9.59472 7.86383 6.59797 0.00445051 -0.0122861 -0.00162019
75 2 9.91073 9.32577 6.84345 0.00392179 -0.00990399 0.00644265
76 1 12.1569 4.91709 9.70555 -0.00325078 -0.000868244 0.00122546
77 2 11.5505 5.59451 9.26314 0.0305751 -0.00642221 0.0264297
78 2 4.12246 5.52608 10.1119 0.012084 0.00396548 0.0101006
79 1 11.9138 8.71283 10.1213 -0.00436186 0.0109371 -0.00141275
80 2 12.1943 9.34988 10.798 -0.00624108 -0.00128642 0.00782554
81 2 5.644 10.602 9.172 0.0166815 -0.0333518 -0.0149429
82 1 7.42721 5.85771 11.8151 0.00239671 -0.00232173 -0.00164535
83 2 7.28376 5.02675 2.42315 -0.0213127 0.0301633 -0.00805898
84 2 6.53819 6.05904 11.4108 0.0236055 0.0219677 -0.0111283
85 1 10.1027 13.809 11.6042 -0.00168934 -0.00281331 0.0034679
86 2 9.63561 4.80261 11.4189 -0.0145555 -0.0198564 -0.00291082
87 2 11.5292 4.38855 10.255 0.00468706 -0.00467736 -0.0436675
88 1 7.71053 12.782 6.57107 -0.00206114 -0.0015828 -0.00315566
89 2 6.29086 12.623 7.51281 -0.0227199 -0.0105322 -0.0123682
90 2 7.79035 13.7566 6.21562 0.014747 -0.0277641 -0.013427
91 1 5.34728 6.50174 5.82605 -0.00237137 -5.85543e-05 0.00721427
92 2 4.36469 8.05544 6.315 -0.000905275 -0.000987708 -0.0217693
93 2 4.99632 5.92039 6.47125 -0.0115577 0.0277458 0.0157332
94 1 3.80196 4.69239 7.4935 0.00357732 -0.00215365 -0.003861
95 2 3.08418 4.54842 8.25293 0.0199108 0.000357813 0.0356572
96 2 4.87323 6.26831 4.88644 0.00743347 0.00859002 0.00951003
ITEM: TIMESTEP
2
ITEM: NUMBER OF ATOMS
96
ITEM: BOX BOUNDS pp pp pp
2.9236100000000000e+00 1.2773600000000000e+01
4.0306300000000004e+00 1.3880599999999999e+01
2.1372399999999998e+00 1.1987200000000000e+01
ITEM: ATOMS id type x y z vx vy vz
1 1 7.23895 13.3861 3.55582 0.0042314 0.000975412 0.00464835
2 2 6.58616 12.6828 3.46331 -0.0010503 0.0154982 0.0168478
3 2 9.43811 13.1568 11.3667 -0.0144813 -0.00473003 0.012605
4 1 12.5787 9.81349 2.75511 -0.000492366 0.00450092 -0.00395404
5 2 11.8886 10.3856 2.40598 0.0150462 -0.0117911 0.0181038
6 2 12.2594 8.97496 3.1401 0.0175791 0.0206372 -0.00920994
7 1 12.1074 7.5089 4.29106 0.00100428 -0.00394516 -0.000585948
8 2 11.0717 7.36232 4.27357 -0.0127868 0.00321115 0.00878756
9 2 7.72573 8.38211 7.0954 0.0078142 -0.021412 -0.0096814
10 1 7.00718 8.44849 7.70895 -0.000869406 0.00242263 -0.000688011
11 2 6.24189 8.14774 7.18864 -0.0100174 -0.00719327 -0.0171545
12 2 6.67121 9.52937 9.1373 -0.0118055 0.0146292 0.00328253
13 1 7.01191 8.60176 2.62632 0.00429981 0.011866 -0.00111476
14 2 6.67819 9.00849 11.655 0.0259593 -0.00334571 -0.0175029
15 2 7.34957 7.75744 2.44186 0.0081045 0.0364359 -0.000551595
16 1 9.70062 7.17837 10.9619 0.00154123 -0.00637484 -0.00121596
17 2 10.1387 7.1673 11.8506 -0.0245865 0.0054552 0.0111209
18 2 8.8361 6.74242 11.155 0.0150295 -0.00314443 0.00273428
19 1 4.90627 5.77134 10.6555 -0.00256725 -0.000197208 -0.00135643
20 2 4.50663 5.93734 11.5328 -0.00217253 -0.00799923 -0.00235048
21 2 11.1341 8.23692 10.4931 -0.0167154 0.0125436 0.0104812
22 1 10.0232 10.2333 11.7113 0.00189212 -0.0026144 -0.00211037
23 2 9.67605 10.4457 2.73972 -0.00227226 -0.0065243 0.00565994
24 2 9.61237 9.35568 11.6258 -0.0141991 0.00419981 0.0229454
25 1 3.5861 8.68883 6.32216 0.00752332 0.00418618 -0.000942275
26 2 3.86455 9.48674 5.87065 -0.00319466 0.0183932 0.00449205
27 2 3.23196 6.23303 3.92462 -0.00829365 -0.0104551 0.00906407
28 1 9.4408 7.20809 4.10589 -0.000278577 -0.0035395 0.00348283
29 2 9.16307 6.49921 4.73344 0.0110153 -0.0122027 -0.0187922
30 2 9.01352 7.96795 4.50192 -0.0109721 0.000170181 -0.0063723
31 1 4.16761 11.2164 5.6663 -0.00534584 -0.000275971 0.00195298
32 2 3.50033 12.0205 5.60637 -0.0315215 -0.00117896 0.0165351
33 2 4.71615 11.2859 4.85677 0.0176079 -0.0168957 0.00466224
34 1 7.56148 5.14369 8.96197 -0.000515568 -0.0034466 -0.00301287
35 2 7.64337 4.19566 9.11773 -0.00126461 -0.0064986 -0.0153644
36 2 6.93662 5.44973 9.63234 -0.015095 -0.00242904 0.0218189
37 1 8.14359 11.8227 10.5593 -0.000119636 0.00459371 0.0016592
38 2 9.20911 12.0784 9.09785 0.00854201 -0.00147212 0.0208783
39 2 8.64918 11.0684 11.01 0.00539929 -0.0152435 -0.037557
40 1 3.05103 13.5069 5.20988 -0.00759003 0.00053664 0.00912995
41 2 3.75666 4.60721 4.03935 0.00982067 0.0033955 -0.0116081
42 2 11.9353 13.4589 5.08377 -0.00113044 -0.0149336 -0.0030494
43 1 3.96921 5.55442 3.69406 0.00281197 -0.00243834 -0.0012199
44 2 12.3627 7.89051 5.20616 -0.00909604 -0.00431411 0.0332208
45 2 8.06735 12.8387 3.53605 0.0153546 -0.0312234 -0.015446
46 1 9.74504 12.3358 8.31668 0.00204906 0.00587596 -0.000825949
47 2 8.52351 12.5877 7.0984 -0.00574655 -0.0272732 0.0185499
48 2 10.3774 11.577 8.17002 0.010063 -0.000218304 0.0010514
49 1 10.1605 6.51155 8.18478 0.000413073 0.00508878 0.000129659
50 2 9.36634 5.8745 8.0064 0.00728078 0.0299381 -0.0332171
51 2 10.0415 6.85799 9.01355 0.00380592 0.00171721 0.0012278
52 1 9.07345 10.9593 4.47546 -0.00953279 0.00692485 0.00692415
53 2 9.23707 10.2343 5.00944 -0.0157954 -0.0196814 0.015424
54 2 8.69869 11.5796 5.09637 -0.0119615 -0.00624441 0.00536975
55 1 5.13356 11.1335 3.25378 0.00563189 -0.00283183 7.26856e-05
56 2 5.71077 10.308 3.26163 -0.00998249 -0.0238325 -0.0132091
57 2 4.2334 10.6993 3.01718 -0.0198804 -0.00055651 0.0146848
58 1 6.25249 10.1439 9.77655 0.00333962 0.00137831 0.0030241
59 2 4.51766 13.724 7.78568 0.00489842 0.0292208 -0.00301474
60 2 7.31793 11.3672 10.2437 -0.00261748 0.0038539 -0.000678873
61 1 7.83406 5.53351 6.39921 0.00279387 -0.00297255 -0.00680379
62 2 7.7316 5.66526 7.41237 0.018917 -0.0072227 -0.00305787
63 2 6.88679 5.80819 6.12547 -0.0117507 0.00581725 -0.00137219
64 1 5.32063 12.3925 7.89959 -0.00250668 -0.00326849 -0.00115146
65 2 4.91464 11.8188 7.15356 -0.0105818 -0.0435009 -0.00162001
66 2 3.25013 4.26321 6.32206 -0.0164678 -0.00739003 -0.0509196
67 1 11.3744 9.95716 7.75246 -0.000611513 -0.00494068 -0.00259566
68 2 11.905 9.51216 7.08019 -0.0362972 -0.0210494 -0.0115729
69 2 11.6414 9.51915 8.58117 -0.0306149 -0.00515769 0.0100469
70 1 10.2989 4.23168 4.56389 0.00484393 -0.00272902 -0.00428809
71 2 10.2464 4.17358 3.55691 0.00175537 -0.0104141 -0.0191284
72 2 9.44738 4.56788 4.77114 0.00849109 0.00667123 -0.0424746
73 1 9.42359 8.76176 6.25465 0.00177531 0.00104733 0.00268581
74 2 9.59707 7.8577 6.59731 0.00485609 -0.0118441 -0.00120177
75 2 9.91341 9.32161 6.84753 0.00675609 -0.00669897 0.00990738
76 1 12.1551 4.91669 9.70614 -0.00347959 -0.000727576 0.00110447
77 2 11.5665 5.59044 9.27686 0.0323519 -0.00892349 0.0278222
78 2 4.12921 5.52821 10.1174 0.0144025 0.00436007 0.0113991
79 1 11.9116 8.71828 10.1206 -0.00428457 0.0108394 -0.00147409
80 2 12.1911 9.34902 10.8021 -0.00675285 -0.0020185 0.00845643
81 2 5.65222 10.5859 9.16502 0.0155535 -0.0301882 -0.0130361
82 1 7.42836 5.85658 11.8143 0.00221852 -0.0021388 -0.00185253
83 2 7.27329 5.0409 2.41994 -0.0207375 0.0255427 -0.00427388
84 2 6.5504 6.06999 11.4053 0.0248311 0.0219101 -0.0112034
85 1 10.1018 13.8077 11.606 -0.00172196 -0.00254985 0.00343313
86 2 9.62859 4.79213 11.4176 -0.0134905 -0.0216534 -0.00225837
87 2 11.5319 4.38645 10.2329 0.00531406 -0.00438634 -0.0440314
88 1 7.70945 12.7812 6.56946 -0.00223358 -0.00162863 -0.0032446
89 2 6.27811 12.6176 7.5071 -0.0280254 -0.0109708 -0.0104267
90 2 7.79757 13.7424 6.20949 0.0142407 -0.0284995 -0.0111886
91 1 5.3461 6.50178 5.82951 -0.00234016 0.000244687 0.00663765
92 2 4.36354 8.05522 6.30388 -0.00350078 0.000125472 -0.0227201
93 2 4.98962 5.93351 6.47954 -0.0154437 0.0244588 0.0175965
94 1 3.80379 4.69127 7.49175 0.00374707 -0.00232171 -0.00309928
95 2 3.09421 4.54913 8.26986 0.020421 0.00258512 0.031458
96 2 4.87758 6.27219 4.89284 0.00977738 0.00677764 0.0158561
ITEM: TIMESTEP
3
ITEM: NUMBER OF ATOMS
96
ITEM: BOX BOUNDS pp pp pp
2.9236100000000000e+00 1.2773600000000000e+01
4.0306300000000004e+00 1.3880599999999999e+01
2.1372399999999998e+00 1.1987200000000000e+01
ITEM: ATOMS id type x y z vx vy vz
1 1 7.24114 13.3865 3.55813 0.00457929 0.000584812 0.0045986
2 2 6.58551 12.691 3.4717 -0.00178765 0.0170109 0.0167083
3 2 9.43081 13.1541 11.3729 -0.0143895 -0.00605172 0.0122946
4 1 12.5785 9.81577 2.75312 3.62568e-06 0.00459961 -0.00400193
5 2 11.8949 10.3791 2.41535 0.00939097 -0.0133325 0.0189073
6 2 12.2675 8.98543 3.13563 0.0148444 0.0203376 -0.00820636
7 1 12.1079 7.50698 4.2908 0.000769223 -0.00369575 -0.000396539
8 2 11.0662 7.36401 4.27843 -0.00851244 0.00357202 0.0105216
9 2 7.73045 8.37153 7.09009 0.0105123 -0.0207827 -0.0110026
10 1 7.00667 8.44968 7.7086 -0.00118582 0.00233575 -0.000770747
11 2 6.23721 8.14407 7.18032 -0.00812093 -0.00723688 -0.015624
12 2 6.66593 9.53618 9.13934 -0.00865716 0.011946 0.00469006
13 1 7.014 8.60785 2.6258 0.00401693 0.0125122 -0.000989619
14 2 6.69158 9.00612 11.6464 0.0274555 -0.00588426 -0.0167732
15 2 7.35401 7.77449 2.44091 0.0100484 0.0309429 -0.00323143
16 1 9.70142 7.17518 10.9614 0.00166509 -0.00637344 -0.000904373
17 2 10.1258 7.17 11.8555 -0.0266516 0.0054347 0.00855238
18 2 8.84391 6.74107 11.1561 0.0156 -0.00252107 0.00131905
19 1 4.90496 5.77126 10.6548 -0.0026507 -0.000110176 -0.00125593
20 2 4.50578 5.93299 11.5313 -0.00124081 -0.00934639 -0.00357022
21 2 11.126 8.24356 10.4981 -0.0151743 0.0141453 0.00893743
22 1 10.0241 10.232 11.7102 0.0016034 -0.00276996 -0.00203994
23 2 9.6752 10.4433 2.74308 -0.000932323 -0.00307592 0.00744305
24 2 9.60576 9.35752 11.6365 -0.0121839 0.00312104 0.0197823
25 1 3.58985 8.69078 6.32172 0.00747496 0.00362192 -0.000808768
26 2 3.86338 9.49702 5.87233 -0.00149166 0.022458 0.00234589
27 2 3.2279 6.22645 3.92917 -0.00792661 -0.0157386 0.00913113
28 1 9.44065 7.20624 4.10763 -0.000315014 -0.00382961 0.00344915
29 2 9.16885 6.49343 4.72359 0.011893 -0.0110495 -0.0201975
30 2 9.00808 7.96875 4.49892 -0.0107713 0.00267242 -0.00553702
31 1 4.1649 11.2163 5.66739 -0.00550759 -0.000153381 0.00241018
32 2 3.48464 12.02 5.61452 -0.0304868 -0.00160444 0.0157146
33 2 4.72583 11.2775 4.85797 0.0204862 -0.0162481 0.000487445
34 1 7.56124 5.14195 8.96053 -0.000510681 -0.00346535 -0.00270526
35 2 7.64257 4.19249 9.11014 -0.00191984 -0.00603514 -0.0150175
36 2 6.92901 5.44819 9.64321 -0.0146622 -0.00405406 0.0209406
37 1 8.14358 11.8249 10.5601 9.03416e-05 0.00439539 0.00171314
38 2 9.21324 12.0777 9.10863 0.00824564 -0.00116793 0.021731
39 2 8.6523 11.0617 10.991 0.00721025 -0.0114396 -0.0382013
40 1 3.04723 13.5072 5.21454 -0.00757696 0.000659892 0.00948874
41 2 3.76084 4.61014 4.03399 0.0070509 0.00830797 -0.00994189
42 2 11.9351 13.452 5.08252 9.91557e-05 -0.0124064 -0.00190138
43 1 3.97068 5.55323 3.69344 0.00305859 -0.00232069 -0.00124664
44 2 12.358 7.88801 5.22191 -0.00960293 -0.00599112 0.0287847
45 2 8.07393 12.824 3.52847 0.0102594 -0.0270149 -0.0148175
46 1 9.7461 12.3387 8.31624 0.00219014 0.00564631 -0.000868115
47 2 8.52091 12.5742 7.10809 -0.00497241 -0.0263963 0.0199248
48 2 10.3817 11.5775 8.17058 0.00725457 0.00274446 0.00117304
49 1 10.1606 6.51394 8.18465 0.000183091 0.00451165 -0.000673164
50 2 9.372 5.89126 7.99071 0.0148717 0.0366959 -0.0294337
51 2 10.0426 6.85957 9.01641 0.000664221 0.00441577 0.010055
52 1 9.06866 10.9629 4.47884 -0.00962363 0.007324 0.00663463
53 2 9.22976 10.2222 5.01822 -0.0137498 -0.0275972 0.0188932
54 2 8.69227 11.5773 5.09925 -0.0137678 -0.00273488 0.00627551
55 1 5.13635 11.1319 3.25378 0.0055245 -0.00351546 -8.49901e-05
56 2 5.70553 10.2975 3.25496 -0.0110416 -0.0182378 -0.0134761
57 2 4.22463 10.7001 3.02479 -0.0146668 0.00431228 0.0158015
58 1 6.25412 10.1446 9.77803 0.00320131 0.00125803 0.00291822
59 2 4.51996 13.7386 7.783 0.00421448 0.0295012 -0.00783385
60 2 7.31605 11.3693 10.243 -0.00486235 0.00481307 -0.00202694
61 1 7.83537 5.53208 6.39581 0.00239751 -0.0027429 -0.00677055
62 2 7.74178 5.66125 7.4099 0.0216343 -0.00883683 -0.0069446
63 2 6.88179 5.81088 6.12372 -0.00775128 0.00476749 -0.00532932
64 1 5.31946 12.3909 7.89891 -0.00221875 -0.00335643 -0.00160105
65 2 4.90939 11.7978 7.15335 -0.0101974 -0.0401125 0.00126533
66 2 3.24106 4.25763 6.29396 -0.019991 -0.0148532 -0.0613272
67 1 11.374 9.95474 7.75114 -0.000751061 -0.00472137 -0.00269082
68 2 11.8873 9.50165 7.0739 -0.0341723 -0.021218 -0.0133661
69 2 11.6261 9.51623 8.58734 -0.0305396 -0.00658765 0.0143087
70 1 10.3013 4.2303 4.56165 0.00489204 -0.00281025 -0.00472983
71 2 10.2479 4.16817 3.54823 0.00418663 -0.0113261 -0.0152766
72 2 9.45078 4.57153 4.75075 0.00486184 0.00802807 -0.0387824
73 1 9.42443 8.7622 6.25597 0.00159504 0.000669761 0.0026244
74 2 9.59958 7.85199 6.59677 0.00508896 -0.0106832 -0.00110369
75 2 9.91749 9.31907 6.85335 0.00941004 -0.00355265 0.0132573
76 1 12.1534 4.91636 9.70666 -0.00349796 -0.000629768 0.000990308
77 2 11.5829 5.58559 9.29096 0.0323584 -0.00940408 0.0279366
78 2 4.13686 5.53044 10.1233 0.0155195 0.00436044 0.0116901
79 1 11.9095 8.72367 10.1198 -0.00427343 0.010701 -0.00149566
80 2 12.1876 9.34786 10.8065 -0.00703214 -0.00250537 0.00885948
81 2 5.65956 10.5718 9.15896 0.0131837 -0.0257973 -0.0112857
82 1 7.42943 5.85557 11.8133 0.00210509 -0.00187429 -0.00209508
83 2 7.26302 5.05229 2.41887 -0.0205301 0.0193913 0.000356889
84 2 6.56302 6.08095 11.3996 0.0253072 0.0220118 -0.0115089
85 1 10.1009 13.8065 11.6077 -0.00179593 -0.00234935 0.00339351
86 2 9.62212 4.78096 11.4166 -0.0124628 -0.0225903 -0.00163729
87 2 11.5345 4.38416 10.211 0.00443987 -0.00547669 -0.0430882
88 1 7.70829 12.7804 6.56782 -0.00236359 -0.00176117 -0.00328999
89 2 6.26283 12.612 7.50238 -0.0326336 -0.011208 -0.00851064
90 2 7.80459 13.7281 6.20443 0.0139981 -0.0282863 -0.00917529
91 1 5.34494 6.50199 5.83269 -0.00225522 0.000582565 0.00609383
92 2 4.36118 8.05557 6.29228 -0.00572738 0.00124933 -0.0236701
93 2 4.98087 5.94484 6.48885 -0.0196642 0.0207764 0.0196795
94 1 3.8057 4.69006 7.4904 0.00390719 -0.00248973 -0.00223026
95 2 3.1046 4.55101 8.28439 0.0213905 0.00502851 0.0261153
96 2 4.88301 6.27509 4.9023 0.0117012 0.00473085 0.0216074
ITEM: TIMESTEP
4
ITEM: NUMBER OF ATOMS
96
ITEM: BOX BOUNDS pp pp pp
2.9236100000000000e+00 1.2773600000000000e+01
4.0306300000000004e+00 1.3880599999999999e+01
2.1372399999999998e+00 1.1987200000000000e+01
ITEM: ATOMS id type x y z vx vy vz
1 1 7.24353 13.3867 3.56042 0.00502565 0.000159953 0.00454603
2 2 6.58438 12.6998 3.48001 -0.0029574 0.0180897 0.0165118
3 2 9.42372 13.1508 11.379 -0.0136322 -0.00718547 0.0122409
4 1 12.5787 9.81809 2.75111 0.000639995 0.00470776 -0.00403721
5 2 11.898 10.3722 2.42489 0.00209998 -0.0132249 0.0188281
6 2 12.2742 8.9953 3.13189 0.0115962 0.0183114 -0.00636825
7 1 12.1082 7.5052 4.29066 0.000505655 -0.00342324 -7.14008e-05
8 2 11.0632 7.36589 4.28409 -0.00340074 0.00394089 0.0119791
9 2 7.73625 8.36132 7.0844 0.0120505 -0.0199482 -0.0111542
10 1 7.00599 8.45082 7.70818 -0.00148609 0.00219902 -0.000999407
11 2 6.23377 8.1405 7.17301 -0.00518436 -0.00680479 -0.0132103
12 2 6.66255 9.54132 9.14199 -0.00427122 0.00798604 0.00577343
13 1 7.01593 8.61427 2.62533 0.00370963 0.0132081 -0.00086916
14 2 6.70565 9.00261 11.6382 0.0286739 -0.0078962 -0.0160291
15 2 7.35962 7.78839 2.43863 0.0126556 0.0241479 -0.00580461
16 1 9.70228 7.172 10.961 0.00182969 -0.00634248 -0.000592927
17 2 10.112 7.17273 11.8591 -0.0279784 0.0055923 0.00622098
18 2 8.8517 6.7399 11.1564 0.0149608 -0.00241623 -0.000395162
19 1 4.90362 5.77123 10.6542 -0.00263341 1.98912e-07 -0.00111503
20 2 4.50539 5.92799 11.5292 -0.000370383 -0.01056 -0.00433309
21 2 11.1189 8.25107 10.5021 -0.0130749 0.0159235 0.00686296
22 1 10.0248 10.2306 11.7092 0.00126832 -0.00292929 -0.00190602
23 2 9.67512 10.4427 2.74716 0.000816661 0.000529883 0.0084491
24 2 9.60019 9.3588 11.6456 -0.0100642 0.00198819 0.016306
25 1 3.59357 8.69246 6.32135 0.00738287 0.00310105 -0.000699608
26 2 3.86305 9.5092 5.873 7.98562e-05 0.0258224 0.00052645
27 2 3.22404 6.21729 3.93375 -0.00750297 -0.0206369 0.00914934
28 1 9.44049 7.20426 4.10934 -0.000330512 -0.00405163 0.00335806
29 2 9.17496 6.48816 4.71324 0.0122834 -0.0102016 -0.0207699
30 2 9.00275 7.97063 4.49639 -0.0104404 0.00443841 -0.00452198
31 1 4.1621 11.2163 5.66871 -0.00566413 -1.30593e-05 0.00285183
32 2 3.46985 12.0189 5.62209 -0.0279212 -0.0032027 0.0143075
33 2 4.73664 11.2696 4.85726 0.0221006 -0.0149597 -0.00286121
34 1 7.56097 5.14022 8.95926 -0.000586417 -0.00345412 -0.00231953
35 2 7.64145 4.18962 9.10272 -0.00259151 -0.00534158 -0.0146758
36 2 6.92196 5.44567 9.65328 -0.0129384 -0.00631136 0.0186572
37 1 8.14368 11.8271 10.561 0.000287326 0.00417324 0.00173845
38 2 9.21735 12.0773 9.11958 0.00849001 -0.000431937 0.0215622
39 2 8.65639 11.057 10.9718 0.00920698 -0.00761667 -0.0384939
40 1 3.04346 13.5076 5.21937 -0.0075118 0.000756282 0.00980435
41 2 3.76371 4.61552 4.0294 0.00455924 0.0130013 -0.00858472
42 2 11.9354 13.4465 5.08186 0.000192858 -0.00979377 -0.00071812
43 1 3.97227 5.5521 3.69281 0.00327915 -0.00219265 -0.00127976
44 2 12.3531 7.88452 5.23495 -0.0100883 -0.00816868 0.02259
45 2 8.07761 12.8117 3.52124 0.00400726 -0.021903 -0.0140609
46 1 9.74723 12.3415 8.31581 0.00229788 0.00536404 -0.000846301
47 2 8.51854 12.5613 7.11833 -0.00482275 -0.0250443 0.020688
48 2 10.3846 11.5797 8.17119 0.00414481 0.00609845 0.00127176
49 1 10.1607 6.51606 8.18411 3.11029e-05 0.0040378 -0.00144616
50 2 9.38121 5.91119 7.97697 0.0211478 0.0423954 -0.0255296
51 2 10.0422 6.86241 9.0236 -0.00254631 0.00659899 0.0181065
52 1 9.06383 10.9666 4.48209 -0.00966987 0.00754881 0.00644852
53 2 9.22332 10.2068 5.02833 -0.012369 -0.0328364 0.0206247
54 2 8.68493 11.5768 5.10265 -0.0155892 0.000740878 0.0073649
55 1 5.13908 11.13 3.2537 0.00536167 -0.00423594 -0.000230291
56 2 5.69973 10.2898 3.24815 -0.0120561 -0.0123761 -0.013722
57 2 4.21873 10.7036 3.03299 -0.00863456 0.00957238 0.0169868
58 1 6.25569 10.1452 9.77947 0.00305343 0.00115556 0.00285725
59 2 4.52187 13.7535 7.77785 0.00335586 0.029934 -0.0128127
60 2 7.31307 11.372 10.2416 -0.00691746 0.00609991 -0.00329025
61 1 7.83646 5.53077 6.39244 0.00196795 -0.00249771 -0.00675444
62 2 7.75323 5.65642 7.40542 0.0240053 -0.0104507 -0.0109247
63 2 6.87904 5.81296 6.12014 -0.00295005 0.00345778 -0.00869951
64 1 5.31841 12.3892 7.89799 -0.00203512 -0.00353767 -0.00209499
65 2 4.90444 11.7787 7.15483 -0.00940774 -0.0357195 0.00502884
66 2 3.23014 4.24836 6.26073 -0.0237286 -0.0219439 -0.0711057
67 1 11.3736 9.95243 7.74977 -0.000924018 -0.00447612 -0.00276936
68 2 11.8708 9.49095 7.06683 -0.0316694 -0.0217331 -0.0146049
69 2 11.6109 9.51256 8.59548 -0.0301764 -0.00810511 0.0177513
70 1 10.3038 4.22887 4.55916 0.00492259 -0.00289141 -0.00524265
71 2 10.2506 4.16226 3.54164 0.0071266 -0.0123835 -0.0109092
72 2 9.45224 4.57591 4.73236 0.000983046 0.00952828 -0.0345239
73 1 9.42518 8.76243 6.25727 0.00143913 0.000276662 0.00259531
74 2 9.60216 7.84702 6.59621 0.00517267 -0.00888941 -0.00128676
75 2 9.92282 9.31805 6.86079 0.0116947 -0.000714992 0.0162479
76 1 12.1517 4.91606 9.70713 -0.00330503 -0.000586834 0.000895914
77 2 11.5988 5.58103 9.3048 0.0305281 -0.00770322 0.0267395
78 2 4.14473 5.53257 10.1291 0.0152718 0.00391246 0.0108631
79 1 11.9074 8.72898 10.1191 -0.00431827 0.0105285 -0.00148476