ITEM: TIMESTEP
0
ITEM: NUMBER OF ATOMS
96
ITEM: BOX BOUNDS pp pp pp
2.9236100000000000e+00 1.2773600000000000e+01
4.0306300000000004e+00 1.3880599999999999e+01
2.1372399999999998e+00 1.1987200000000000e+01
ITEM: ATOMS id type x y z vx vy vz
1 1 7.2287 13.3823 3.54387 -0.00465053 -0.00158909 -0.00493247
2 2 6.58865 12.6569 3.42084 0.00183635 -0.0049676 -0.0170803
3 2 9.46803 13.1601 11.3303 0.00807466 -0.00126597 -0.0171375
4 1 12.5809 9.80267 2.76445 0.000582909 -0.00422778 0.00343447
5 2 11.839 10.3849 2.37779 -0.01778 -0.0172187 -0.00124823
6 2 12.2074 8.94379 3.15867 -0.0207826 0.0013531 0.00292455
7 1 12.1039 7.51982 4.29165 -0.00156545 0.0045887 -0.000780494
8 2 11.1137 7.3554 4.26469 0.014705 -0.00286133 0.00213295
9 2 7.73191 8.43826 7.10098 0.0127055 0.023403 -0.00627798
10 1 7.00774 8.44252 7.71187 -0.000138118 -0.00217468 0.00204486
11 2 6.26269 8.15846 7.22774 0.00194206 -0.000667876 0.0100204
12 2 6.70307 9.49359 9.14041 0.00822033 -0.00860944 0.00568059
13 1 7.00001 8.57471 2.62985 -0.00497305 -0.0103604 0.00170131
14 2 6.62448 8.99683 11.701 -0.0170865 -0.0130382 0.0178561
15 2 7.32993 7.65799 2.4289 -0.0113583 -0.0339531 -0.00939508
16 1 9.69701 7.19406 10.9665 -0.00148852 0.00614726 0.00222706
17 2 10.1811 7.15145 11.8093 0.00870519 -0.00784042 -0.0193034
18 2 8.81403 6.75861 11.1436 -0.000486394 0.0103361 -0.0049881
19 1 4.91127 5.77211 10.659 0.00128611 0.000359218 0.00124445
20 2 4.51701 5.94807 11.5289 0.00532461 0.000635242 -0.00482335
21 2 11.175 8.21087 10.4652 0.0122412 -0.0101658 -0.00929025
22 1 10.0173 10.2391 11.7163 -0.00263191 0.00205978 0.00175149
23 2 9.68478 10.4779 2.74288 0.00319583 0.0162507 0.00863332
24 2 9.65835 9.34103 11.5556 0.0216758 -0.0060638 -0.0301372
25 1 3.56757 8.67502 6.32543 -0.00711507 -0.00658051 0.00160875
26 2 3.882 9.46753 5.84653 0.00946128 0.0011225 -0.0131239
27 2 3.25233 6.22692 3.90298 0.00633987 -0.0130249 -0.0079788
28 1 9.44094 7.21471 4.09772 -0.000276859 0.00178754 -0.00283317
29 2 9.14591 6.53844 4.76296 -0.00176159 0.0187126 0.00309378
30 2 9.04256 7.98774 4.51859 0.0129745 0.0158105 0.00490752
31 1 4.18018 11.2177 5.66385 0.0048555 0.000793375 -0.000319151
32 2 3.56814 12.0312 5.56907 0.0185999 0.00880135 -0.0103667
33 2 4.70028 11.3225 4.81701 0.00576249 0.00929864 -0.0246571
34 1 7.56391 5.15173 8.97032 0.00173518 0.0028447 0.00338078
35 2 7.64301 4.21149 9.15831 -0.00129004 0.00528005 0.017013
36 2 6.9589 5.45531 9.59162 -0.00236215 0.00496228 -0.00551005
37 1 8.14516 11.8104 10.5556 0.00105905 -0.00497072 -0.00127021
38 2 9.17928 12.079 9.06249 -0.0167392 -0.00230849 -0.00494259
39 2 8.64334 11.1269 11.0958 -0.000612706 0.0295012 0.0300962
40 1 3.06964 13.5066 5.18983 0.00724014 0.000398519 -0.00667672
41 2 3.71387 4.62644 4.08067 -0.0237278 0.0166581 0.0211555
42 2 11.9538 13.5097 5.09654 0.0138498 0.0247813 0.00619713
43 1 3.96404 5.56114 3.69685 -0.00122977 0.00287786 0.000924857
44 2 12.3847 7.90054 5.12386 0.00983405 0.00725522 -0.0232391
45 2 8.02261 12.9247 3.57744 -0.0101866 0.0306545 0.0176227
46 1 9.74088 12.3207 8.31781 -0.00136532 -0.00584793 -4.15807e-05
47 2 8.54804 12.6558 7.06628 0.0143813 0.0255531 -0.00619039
48 2 10.343 11.5855 8.16731 -0.0138245 0.00201832 -0.00160964
49 1 10.1576 6.49501 8.18058 -0.00190089 -0.00787829 -0.00248453
50 2 9.39815 5.84478 8.10636 0.0295734 0.00365917 0.0434134
51 2 10.0172 6.87004 9.05613 -0.0128397 0.00931039 0.027141
52 1 9.09624 10.9458 4.45601 0.00862475 -0.00380228 -0.00840954
53 2 9.2927 10.2212 5.00343 0.0276419 -0.0265726 0.0095366
54 2 8.72142 11.6091 5.08238 0.00845376 0.0126252 -0.00845499
55 1 5.11985 11.1377 3.2527 -0.00495651 0.00125466 -0.000703377
56 2 5.73336 10.3906 3.29273 0.0106191 0.0362936 0.0116142
57 2 4.29561 10.7197 2.98302 0.021667 0.010571 -0.0149629
58 1 6.2434 10.1396 9.7679 -0.00389318 -0.00199874 -0.00393294
59 2 4.50186 13.6543 7.76867 -0.00827739 -0.0245965 -0.0139742
60 2 7.31169 11.3584 10.2381 -0.00609448 -0.00492788 -0.00409666
61 1 7.82553 5.54205 6.41618 -0.00362824 0.00373881 0.00656682
62 2 7.7039 5.675 7.40365 -0.00356436 0.00163539 -0.00612079
63 2 6.92623 5.79194 6.09856 0.01453 -0.00537097 -0.0236965
64 1 5.32967 12.4013 7.90084 0.00491711 0.00399496 0.000335589
65 2 4.93553 11.9319 7.15871 0.00326545 0.0410727 -0.00391845
66 2 3.27429 4.23716 6.38288 0.00470351 -0.0263511 -0.00242487
67 1 11.3758 9.97012 7.7583 0.000907432 0.00509818 0.00211478
68 2 12.0005 9.57048 7.09645 0.0364389 0.0280593 0.00255628
69 2 11.7121 9.52745 8.58474 0.0231136 0.00362633 0.0110372
70 1 10.2869 4.23818 4.57342 -0.00485234 0.00255511 0.00398348
71 2 10.2486 4.19617 3.61646 0.000305654 0.00841225 0.0231366
72 2 9.41486 4.55478 4.88873 -0.0123272 -0.00586732 0.0468713
73 1 9.41801 8.75756 6.24746 -0.00259469 -0.00192423 -0.00297745
74 2 9.58875 7.88515 6.60522 -0.0010052 0.00724791 0.00650777
75 2 9.91332 9.35581 6.84248 0.00540556 0.0180166 0.00376172
76 1 12.1612 4.91955 9.70269 0.000741498 0.00161365 -0.00157455
77 2 11.5064 5.58688 9.22312 -0.0106875 -0.0166813 -0.0114942
78 2 4.11307 5.52154 10.1018 0.00376799 -0.000212315 0.00101975
79 1 11.9233 8.69089 10.1236 0.00537721 -0.0108614 0.000715023
80 2 12.2036 9.34825 10.7865 0.00264224 -0.00334364 -0.0031456
81 2 5.61506 10.6719 9.20978 -0.00886384 0.032638 0.0224936
82 1 7.42131 5.86228 11.818 -0.00361578 0.0018853 0.00139103
83 2 7.3305 4.96246 2.44653 0.0257625 -0.0276402 0.0118613
84 2 6.50068 6.01347 11.4344 -0.012329 -0.0241466 0.0130197
85 1 10.1062 13.816 11.5972 0.00193906 0.00414157 -0.00353455
86 2 9.66816 4.83086 11.4271 0.0172491 0.00742277 0.00498129
87 2 11.5313 4.40727 10.332 0.0095012 0.01647 0.030186
88 1 7.71382 12.7855 6.57682 0.00124686 0.00208779 0.00256242
89 2 6.31424 12.6419 7.54408 0.0015794 0.00849365 0.0179903
90 2 7.75725 13.8028 6.25223 -0.0188831 0.0159367 0.0231691
91 1 5.35176 6.50263 5.80951 0.00195645 0.000599098 -0.00911616
92 2 4.35493 8.06097 6.35472 -0.0105525 0.0038345 0.017949
93 2 5.00818 5.85743 6.44382 0.00256108 -0.0320515 -0.0133479
94 1 3.79551 4.69594 7.50337 -0.00285304 0.00132866 0.00560574
95 2 3.04411 4.55471 8.17316 -0.0206888 0.00575479 -0.0406753
96 2 4.86968 6.24623 4.89325 0.00422389 -0.0122782 0.014916
ITEM: TIMESTEP
1
ITEM: NUMBER OF ATOMS
96
ITEM: BOX BOUNDS pp pp pp
2.9236100000000000e+00 1.2773600000000000e+01
4.0306300000000004e+00 1.3880599999999999e+01
2.1372399999999998e+00 1.1987200000000000e+01
ITEM: ATOMS id type x y z vx vy vz
1 1 7.22626 13.3815 3.54139 -0.00513264 -0.00139595 -0.0050125
2 2 6.58969 12.6549 3.41229 0.00233133 -0.00312672 -0.0171549
3 2 9.47163 13.1593 11.3214 0.00639812 -0.00152037 -0.0182599
4 1 12.5811 9.80056 2.76613 0.000234861 -0.00421147 0.00328154
5 2 11.8308 10.3744 2.37835 -0.0148301 -0.0247819 0.00345455
6 2 12.1973 8.94614 3.15954 -0.0195079 0.00794941 0.000596956
7 1 12.1031 7.52212 4.29111 -0.00155041 0.0045903 -0.00141725
8 2 11.1203 7.35391 4.26635 0.0113697 -0.0031221 0.00453311
9 2 7.73905 8.45006 7.09708 0.0152034 0.0237686 -0.00889899
10 1 7.00767 8.44147 7.713 -0.000111424 -0.00203891 0.00244593
11 2 6.26275 8.1575 7.2319 -0.00169748 -0.00319981 0.00650262
12 2 6.70632 9.49024 9.14361 0.0045338 -0.00458676 0.00687389
13 1 6.99752 8.56952 2.63073 -0.00495133 -0.0104287 0.00182927
14 2 6.61632 8.98951 11.7097 -0.0156998 -0.0160525 0.016596
15 2 7.32362 7.64232 2.42394 -0.0140444 -0.0281715 -0.0102487
16 1 9.69625 7.19712 10.9676 -0.00154634 0.00611603 0.00222927
17 2 10.1847 7.14733 11.7997 0.00576197 -0.00869265 -0.018565
18 2 8.81466 6.76414 11.1412 0.00281197 0.011657 -0.00449362
19 1 4.91184 5.77229 10.6596 0.00101704 0.000361858 0.00112185
20 2 4.51969 5.94805 11.5263 0.00523355 -0.000656663 -0.00528076
21 2 11.1804 8.20566 10.4609 0.00918894 -0.0107959 -0.00765081
22 1 10.016 10.2401 11.7171 -0.00266603 0.00201788 0.00161845
23 2 9.68625 10.486 2.74785 0.00261377 0.0158917 0.0109668
24 2 9.66943 9.33814 11.5406 0.0225151 -0.00527799 -0.0293622
25 1 3.56405 8.67166 6.32625 -0.00693801 -0.00679033 0.00166277
26 2 3.88681 9.46867 5.83986 0.00952103 0.00292207 -0.0131794
27 2 3.25512 6.2197 3.89909 0.00453482 -0.0152296 -0.00757183
28 1 9.44076 7.21553 4.09636 -0.000448413 0.00153508 -0.00259535
29 2 9.14557 6.54798 4.76358 0.000308734 0.0191958 -0.000449253
30 2 9.04928 7.99631 4.52066 0.014033 0.0181503 0.00313492
31 1 4.18261 11.2181 5.66372 0.00486812 0.000920709 -0.000244451
32 2 3.57638 12.036 5.56456 0.0144459 0.0101042 -0.00755199
33 2 4.70426 11.3264 4.80423 0.00974335 0.00606485 -0.0256626
34 1 7.56487 5.15311 8.972 0.00210521 0.00265135 0.00334606
35 2 7.64227 4.21398 9.16688 -0.00163189 0.00469854 0.017231
36 2 6.95629 5.45825 9.59023 -0.00800857 0.0068304 -0.000119135
37 1 8.14572 11.8079 10.555 0.00116837 -0.00489524 -0.00124215
38 2 9.17039 12.0775 9.06103 -0.0186611 -0.00359152 -0.00107563
39 2 8.64309 11.142 11.1104 -0.00046222 0.0306546 0.0281901
40 1 3.07324 13.5069 5.18665 0.00717343 0.000625594 -0.0060041
41 2 3.70148 4.63544 4.09161 -0.0255509 0.0190982 0.0223715
42 2 11.9612 13.5224 5.09965 0.0153407 0.0260578 0.00611434
43 1 3.96352 5.56259 3.69728 -0.000861237 0.0029074 0.00078887
44 2 12.3898 7.90478 5.11391 0.0108059 0.00987464 -0.0161023
45 2 8.01917 12.9391 3.58638 -0.0029366 0.0263998 0.0182116
46 1 9.74021 12.3178 8.31774 -0.00133653 -0.00561562 -0.000237251
47 2 8.55563 12.6683 7.06387 0.0157639 0.0242617 -0.00355135
48 2 10.3364 11.586 8.16641 -0.0122936 -0.000609856 -0.00204194
49 1 10.1566 6.49099 8.17934 -0.00210477 -0.00812503 -0.00237613
50 2 9.4141 5.84771 8.12807 0.0332141 0.00709966 0.0430075
51 2 10.0108 6.87488 9.06977 -0.0124424 0.00970254 0.0261804
52 1 9.10051 10.944 4.45178 0.00845084 -0.00332235 -0.00844179
53 2 9.30683 10.2066 5.00899 0.0284171 -0.0304861 0.0118581
54 2 8.7258 11.615 5.07765 0.00926015 0.0105866 -0.0106331
55 1 5.11746 11.1384 3.25233 -0.00458902 0.00143022 -0.000765921
56 2 5.73909 10.4085 3.29845 0.012592 0.0345643 0.0112546
57 2 4.30539 10.7247 2.97518 0.0167974 0.00893777 -0.0166729
58 1 6.24143 10.1386 9.76589 -0.00398072 -0.0020741 -0.00407315
59 2 4.49742 13.6426 7.76123 -0.00970411 -0.0216885 -0.0154177
60 2 7.30848 11.3557 10.236 -0.00642614 -0.00616848 -0.00411639
61 1 7.82373 5.54394 6.41942 -0.00353163 0.00381741 0.00633477
62 2 7.70274 5.67571 7.4007 -0.00138182 0.00139087 -0.00529436
63 2 6.93296 5.78952 6.08544 0.0120832 -0.00414558 -0.0285285
64 1 5.33226 12.4034 7.90103 0.00544189 0.0042594 0.000481986
65 2 4.93644 11.9515 7.15561 0.00026994 0.0370904 -0.00890886
66 2 3.27631 4.2226 6.37896 0.00354632 -0.0315434 -0.0132407
67 1 11.3763 9.97263 7.75934 0.00121077 0.00490755 0.00206749
68 2 12.0182 9.58518 7.09752 0.0339454 0.0308975 0.00202219
69 2 11.7229 9.5295 8.59091 0.0196562 0.00481053 0.0131355
70 1 10.2845 4.23946 4.57549 -0.00494056 0.0025772 0.00436308
71 2 10.2484 4.20038 3.62745 -0.00128475 0.0084703 0.0202425
72 2 9.40924 4.55161 4.91172 -0.0096495 -0.00699307 0.0445934
73 1 9.41669 8.75661 6.24598 -0.00266775 -0.00182376 -0.00293005
74 2 9.58854 7.8882 6.60891 0.000217623 0.00488542 0.0083051
75 2 9.91638 9.36491 6.84466 0.00654861 0.0178793 0.0045575
76 1 12.1614 4.9204 9.70189 -8.20608e-05 0.00179012 -0.00160018
77 2 11.5027 5.57681 9.21857 -0.00431534 -0.0234426 -0.00675001
78 2 4.11603 5.5217 10.1031 0.0078709 0.000783593 0.0040503
79 1 11.9261 8.68549 10.1239 0.0057734 -0.0107363 0.000442857
80 2 12.2046 9.34622 10.7853 0.00151108 -0.00480777 -0.00164505
81 2 5.61162 10.6876 9.2214 -0.00464259 0.0296296 0.0237803
82 1 7.41941 5.86314 11.8187 -0.00397117 0.00148856 0.00148059
83 2 7.34368 4.94984 2.45215 0.0268776 -0.0220507 0.0101983
84 2 6.49543 6.00118 11.4411 -0.00863524 -0.0250154 0.0137999
85 1 10.1072 13.8182 11.5954 0.0020722 0.00443822 -0.00352858
86 2 9.6768 4.8337 11.4297 0.0170967 0.00406212 0.00515771
87 2 11.5373 4.41655 10.3458 0.014497 0.0206453 0.0249321
88 1 7.7144 12.7866 6.57806 0.00109617 0.00232004 0.0024144
89 2 6.31393 12.6461 7.55325 -0.00242748 0.00822161 0.0185
90 2 7.74747 13.8097 6.26439 -0.0202666 0.0113014 0.0253704
91 1 5.35269 6.50292 5.80488 0.0017616 0.000529325 -0.00935085
92 2 4.349 8.06293 6.36346 -0.0129584 0.00379139 0.017005
93 2 5.00929 5.84169 6.43704 0.00223652 -0.0303768 -0.0139113
94 1 3.79413 4.69654 7.50622 -0.0026632 0.00104839 0.00572437
95 2 3.03366 4.55782 8.15305 -0.0210376 0.00652037 -0.0393749
96 2 4.87254 6.24007 4.90188 0.00709656 -0.0121334 0.0189196
ITEM: TIMESTEP
2
ITEM: NUMBER OF ATOMS
96
ITEM: BOX BOUNDS pp pp pp
2.9236100000000000e+00 1.2773600000000000e+01
4.0306300000000004e+00 1.3880599999999999e+01
2.1372399999999998e+00 1.1987200000000000e+01
ITEM: ATOMS id type x y z vx vy vz
1 1 7.22357 13.3809 3.53886 -0.0056636 -0.00113337 -0.00510135
2 2 6.59098 12.6538 3.40369 0.00286682 -0.00159205 -0.0172574
3 2 9.47443 13.1586 11.312 0.00492339 -0.00123675 -0.019296
4 1 12.5811 9.79846 2.76773 -0.000159927 -0.0041973 0.00312001
5 2 11.8242 10.3601 2.38124 -0.0116037 -0.0317614 0.00794173
6 2 12.1879 8.95174 3.15927 -0.0178293 0.0140248 -0.00148347
7 1 12.1023 7.52441 4.29023 -0.00150121 0.00456525 -0.00209793
8 2 11.1251 7.35228 4.26922 0.00733761 -0.00342002 0.00698572
9 2 7.74711 8.46203 7.09208 0.0162973 0.0240855 -0.0106046
10 1 7.00763 8.44048 7.71432 -7.58176e-06 -0.00189598 0.00280041
11 2 6.26099 8.15526 7.23424 -0.00506226 -0.00569796 0.00286995
12 2 6.7076 9.489 9.14728 0.00047902 -0.000326965 0.00747786
13 1 6.99506 8.56428 2.63168 -0.00489185 -0.0105813 0.00197224
14 2 6.60878 8.98078 11.7176 -0.0146405 -0.018676 0.0147458
15 2 7.31589 7.62982 2.41865 -0.0169833 -0.0215075 -0.0107311
16 1 9.69546 7.20018 10.9687 -0.00160432 0.00611014 0.00215193
17 2 10.1869 7.14276 11.7907 0.00327468 -0.00964853 -0.0167733
18 2 8.81684 6.77027 11.1391 0.00557826 0.012661 -0.00372796
19 1 4.91229 5.77247 10.6601 0.000792901 0.000364528 0.000980681
20 2 4.52224 5.94741 11.5236 0.00482971 -0.00180932 -0.00512637
21 2 11.1842 8.20007 10.4575 0.00584616 -0.0115736 -0.00583225
22 1 10.0146 10.2411 11.7179 -0.00267665 0.00200316 0.00149419
23 2 9.68739 10.4938 2.75385 0.00195697 0.0146608 0.0126589
24 2 9.68087 9.33575 11.5262 0.0231127 -0.00405895 -0.0278416
25 1 3.56063 8.66823 6.32709 -0.00675011 -0.00687645 0.0016718
26 2 3.89152 9.47045 5.83335 0.00905925 0.00369138 -0.0124514
27 2 3.25686 6.21169 3.89541 0.0021475 -0.0160891 -0.00712878
28 1 9.44049 7.21625 4.09512 -0.000624276 0.00135838 -0.00235451
29 2 9.14622 6.55764 4.76251 0.00216305 0.0190885 -0.00358268
30 2 9.05659 8.00589 4.52172 0.0153501 0.0198362 0.000893874
31 1 4.18505 11.2186 5.66361 0.00491564 0.00106439 -0.000253098
32 2 3.58259 12.0413 5.56152 0.0106015 0.0105275 -0.0045558
33 2 4.71002 11.3286 4.79135 0.0127731 0.00262884 -0.0250298
34 1 7.56602 5.15438 8.97367 0.00244926 0.00245516 0.00334875
35 2 7.64138 4.21619 9.17554 -0.00193908 0.00421992 0.0173724
36 2 6.95089 5.46214 9.5915 -0.0132925 0.00860301 0.00484151
37 1 8.14633 11.8055 10.5544 0.00123933 -0.00476887 -0.00125254
38 2 9.16062 12.0754 9.06141 -0.0201659 -0.00483491 0.00233746
39 2 8.64288 11.1576 11.124 -0.000465659 0.0310967 0.0263279
40 1 3.07681 13.5072 5.18383 0.00712883 0.00085756 -0.00526358
41 2 3.68832 4.64554 4.10304 -0.0267112 0.0211028 0.0230221
42 2 11.9691 13.5358 5.10265 0.0158082 0.0270939 0.00576877
43 1 3.96318 5.56405 3.69764 -0.000490228 0.00290135 0.000625239
44 2 12.3955 7.91041 5.10776 0.011842 0.0127285 -0.00840267
45 2 8.01967 12.9511 3.59565 0.0051309 0.0215052 0.0189116
46 1 9.73954 12.3151 8.31757 -0.00136619 -0.00534035 -0.000400371
47 2 8.5638 12.6801 7.06273 0.0166246 0.0227304 -0.00112961
48 2 10.3307 11.5849 8.16527 -0.0102858 -0.00393921 -0.00251961
49 1 10.1555 6.48688 8.1782 -0.00222509 -0.00819967 -0.00207181
50 2 9.43136 5.85188 8.14937 0.0346351 0.0084476 0.0417478
51 2 10.0048 6.87974 9.08231 -0.0111934 0.00944426 0.0228511
52 1 9.10469 10.9425 4.44757 0.00831354 -0.00297824 -0.00835195
53 2 9.32112 10.1907 5.01529 0.0282674 -0.0314903 0.0124563
54 2 8.73068 11.6197 5.07175 0.0104342 0.00765708 -0.0130375
55 1 5.11526 11.1391 3.25193 -0.00417454 0.00174681 -0.000821588
56 2 5.74595 10.4252 3.30398 0.0150346 0.0315942 0.0108553
57 2 4.31241 10.7286 2.96635 0.0108623 0.00626725 -0.0188115
58 1 6.23942 10.1375 9.76383 -0.0040628 -0.00212094 -0.00415292
59 2 4.49216 13.6326 7.75325 -0.011626 -0.0177133 -0.0161689
60 2 7.30526 11.3522 10.234 -0.00610967 -0.00761765 -0.00372291
61 1 7.822 5.54587 6.42251 -0.00337202 0.00387886 0.00602144
62 2 7.70252 5.67639 7.39836 0.000176395 0.00151706 -0.00376991
63 2 6.93831 5.78779 6.07003 0.00923663 -0.00266049 -0.0327653
64 1 5.33511 12.4056 7.90132 0.00592326 0.00451162 0.000689174
65 2 4.9358 11.969 7.1498 -0.00275226 0.032439 -0.0145328
66 2 3.27784 4.20562 6.36964 0.00275013 -0.0360454 -0.0239856
67 1 11.377 9.97503 7.76037 0.00158216 0.00466163 0.00204727
68 2 12.0344 9.60138 7.09847 0.0307302 0.0339653 0.002091
69 2 11.7318 9.53226 8.59788 0.0156218 0.00639783 0.0141941
70 1 10.282 4.24076 4.57778 -0.00504697 0.00261076 0.00486367
71 2 10.2473 4.20464 3.6367 -0.00340026 0.0086402 0.0163282
72 2 9.40521 4.54779 4.93332 -0.00613045 -0.00838795 0.0414278
73 1 9.41534 8.75574 6.24453 -0.00269736 -0.00164341 -0.00282224
74 2 9.58897 7.89004 6.61353 0.00150076 0.00246374 0.0101563
75 2 9.91987 9.37369 6.84704 0.00710395 0.0167248 0.00453108
76 1 12.1611 4.92134 9.70109 -0.000887479 0.00194226 -0.00159881
77 2 11.5021 5.56344 9.21637 0.00176647 -0.029625 -0.00224851
78 2 4.12094 5.52232 10.1059 0.0114675 0.00162111 0.00669949
79 1 11.9291 8.68015 10.124 0.00619682 -0.0105832 0.000148306
80 2 12.2051 9.34344 10.7849 0.000329127 -0.00636777 -0.00013383
81 2 5.61042 10.7015 9.23356 -8.81842e-05 0.0259814 0.0245685
82 1 7.41734 5.86377 11.8195 -0.00430803 0.0010065 0.00162122
83 2 7.35738 4.94041 2.45673 0.0278127 -0.0151285 0.00785223
84 2 6.49204 5.98845 11.4482 -0.00502788 -0.0258798 0.0145431
85 1 10.1083 13.8204 11.5937 0.00222108 0.00468089 -0.00351254
86 2 9.68526 4.83492 11.4323 0.0164855 0.00104615 0.00513079
87 2 11.5458 4.42792 10.3569 0.0193731 0.0246408 0.0196177
88 1 7.71492 12.7878 6.57923 0.000995582 0.00256393 0.00228914
89 2 6.31181 12.6501 7.56258 -0.00566102 0.00810425 0.0185967
90 2 7.73698 13.8141 6.2776 -0.0217173 0.00638072 0.0273114
91 1 5.35352 6.50316 5.80016 0.00156104 0.000384316 -0.0094562
92 2 4.34197 8.06476 6.37172 -0.0149031 0.00332674 0.0160752
93 2 5.01042 5.82705 6.42991 0.00259446 -0.0277035 -0.014615
94 1 3.79285 4.69699 7.50909 -0.00246849 0.000725146 0.00573557
95 2 3.02307 4.56123 8.13379 -0.0212073 0.00699139 -0.0374259
96 2 4.87678 6.2341 4.91217 0.0096723 -0.0115872 0.0213774
ITEM: TIMESTEP
3
ITEM: NUMBER OF ATOMS
96
ITEM: BOX BOUNDS pp pp pp
2.9236100000000000e+00 1.2773600000000000e+01
4.0306300000000004e+00 1.3880599999999999e+01
2.1372399999999998e+00 1.1987200000000000e+01
ITEM: ATOMS id type x y z vx vy vz
1 1 7.2206 13.3804 3.53628 -0.00618421 -0.000832667 -0.00519543
2 2 6.59256 12.6533 3.39503 0.00347299 -0.000399726 -0.017377
3 2 9.47655 13.1581 11.3021 0.00375182 -0.000379784 -0.0201856
4 1 12.581 9.79636 2.76925 -0.000562195 -0.00417894 0.00295422
5 2 11.8192 10.3426 2.38629 -0.00852412 -0.0376007 0.0118839
6 2 12.1794 8.96017 3.15805 -0.0158711 0.0189857 -0.0030214
7 1 12.1016 7.52668 4.28901 -0.00142535 0.00452517 -0.00277924
8 2 11.1277 7.35049 4.27334 0.00298833 -0.00369297 0.00949559
9 2 7.75535 8.47414 7.08648 0.0158481 0.0243066 -0.0112537
10 1 7.00766 8.43957 7.7158 0.000157395 -0.0017543 0.00307869
11 2 6.25768 8.1518 7.23477 -0.00772851 -0.00799866 -0.000599271
12 2 6.7068 9.48991 9.15109 -0.00363496 0.0038247 0.00733476
13 1 6.99263 8.55894 2.6327 -0.0048057 -0.0107888 0.0021332
14 2 6.60168 8.97084 11.7244 -0.0139571 -0.0208189 0.0123162
15 2 7.30664 7.62081 2.41321 -0.0199562 -0.0144589 -0.0108859
16 1 9.69465 7.20323 10.9698 -0.00165121 0.00613589 0.00200061
17 2 10.1879 7.13768 11.7829 0.00131346 -0.0106966 -0.0139674
18 2 8.82024 6.7768 11.1375 0.00760257 0.013276 -0.00272771
19 1 4.91263 5.77266 10.6606 0.000629134 0.000372051 0.000831018
20 2 4.52452 5.94624 11.5212 0.00412598 -0.00281173 -0.0043336
21 2 11.1863 8.19408 10.4551 0.00248746 -0.0123445 -0.00399423
22 1 10.0133 10.2421 11.7186 -0.0026714 0.00201636 0.00138795
23 2 9.6882 10.5007 2.76051 0.00129538 0.0126038 0.0136083
24 2 9.69254 9.33408 11.5128 0.0234622 -0.00246623 -0.0256489
25 1 3.5573 8.66479 6.32793 -0.00656216 -0.00683953 0.00163423
26 2 3.89587 9.47236 5.82741 0.00809765 0.00345484 -0.0109563
27 2 3.25727 6.20361 3.89196 -0.000760443 -0.0155312 -0.00669605
28 1 9.44014 7.21689 4.09401 -0.000793653 0.0012667 -0.00212828
29 2 9.14773 6.56707 4.76 0.00368892 0.0182949 -0.00608584
30 2 9.06463 8.01614 4.52156 0.0168829 0.0208187 -0.00173176
31 1 4.18752 11.2192 5.66347 0.00499187 0.00122355 -0.000328951
32 2 3.58699 12.0465 5.56 0.00736302 0.00976917 -0.0015329
33 2 4.71704 11.329 4.7792 0.0147065 -0.000813631 -0.0227336
34 1 7.56732 5.15556 8.97535 0.00273642 0.00226679 0.00342016
35 2 7.64034 4.2182 9.18425 -0.00222241 0.00392472 0.0174198
36 2 6.943 5.46686 9.59507 -0.0177285 0.010029 0.00889072
37 1 8.14696 11.8032 10.5537 0.00127139 -0.00459485 -0.00130685
38 2 9.15023 12.0727 9.06336 -0.0210471 -0.00596131 0.00505327
39 2 8.64263 11.1731 11.1367 -0.000552366 0.0308257 0.0245782
40 1 3.08037 13.5077 5.18139 0.00710725 0.00109077 -0.0044625
41 2 3.67477 4.65654 4.11464 -0.0270729 0.0228222 0.0229746
42 2 11.977 13.5495 5.10542 0.0150882 0.0278941 0.0051527
43 1 3.96303 5.56549 3.69791 -0.000128604 0.00285588 0.000440113
44 2 12.4017 7.9175 5.10551 0.0127553 0.0155182 -0.000794337
45 2 8.0243 12.9606 3.60529 0.013038 0.016465 0.0196729
46 1 9.73885 12.3125 8.31734 -0.00145462 -0.00504552 -0.000518781
47 2 8.57226 12.691 7.06274 0.0168632 0.0209801 0.00100913
48 2 10.3261 11.582 8.16389 -0.00804919 -0.00768232 -0.0029828
49 1 10.1544 6.48279 8.17727 -0.00224697 -0.00809191 -0.00160188
50 2 9.44874 5.85616 8.16982 0.0336366 0.00743799 0.0397225
51 2 9.99958 6.88433 9.09262 -0.00913818 0.00866542 0.0174715
52 1 9.10882 10.9411 4.44343 0.00822135 -0.00277944 -0.00815421
53 2 9.33509 10.1751 5.02145 0.027187 -0.029678 0.0113519
54 2 8.73623 11.6227 5.06461 0.0118526 0.00408056 -0.0154734
55 1 5.11328 11.1401 3.25151 -0.00373489 0.00216713 -0.000883511
56 2 5.75413 10.4401 3.30931 0.0176915 0.027691 0.0103785
57 2 4.31626 10.731 2.95636 0.00446286 0.00282559 -0.0211777
58 1 6.23737 10.1365 9.76174 -0.00414055 -0.00213795 -0.00415344
59 2 4.4858 13.6249 7.74506 -0.01411 -0.0126205 -0.0162905
60 2 7.30237 11.348 10.2323 -0.00514193 -0.00920316 -0.00291762
61 1 7.82036 5.54782 6.42544 -0.00317208 0.00392739 0.00562615
62 2 7.70291 5.67723 7.39693 0.0010418 0.00201581 -0.00177531
63 2 6.94219 5.78686 6.05268 0.00636038 -0.00100273 -0.036167
64 1 5.33819 12.4079 7.90172 0.00633676 0.00472963 0.000922259
65 2 4.93368 11.984 7.14108 -0.0054931 0.0274796 -0.0202679
66 2 3.27906 4.18656 6.35498 0.00230256 -0.0397819 -0.0344588
67 1 11.3779 9.97729 7.76139 0.00200359 0.00437907 0.00205518
68 2 12.0489 9.61915 7.09961 0.0269543 0.0371057 0.00272499
69 2 11.7385 9.5359 8.60511 0.0111403 0.0082682 0.0142487
70 1 10.2794 4.24207 4.58035 -0.00515975 0.00264966 0.00545469
71 2 10.245 4.20902 3.64378 -0.00594746 0.00890314 0.0116934
72 2 9.40311 4.54322 4.95314 -0.00205241 -0.00993742 0.0375422
73 1 9.41399 8.75497 6.24315 -0.00268342 -0.00140245 -0.00264949
74 2 9.59004 7.89067 6.61907 0.00278408 0.000198242 0.0119456
75 2 9.92349 9.38164 6.84919 0.00709143 0.0146122 0.00372687
76 1 12.1605 4.92235 9.70029 -0.00162388 0.00206041 -0.00157235
77 2 11.5044 5.54718 9.21632 0.0071066 -0.0347704 0.00166044
78 2 4.12749 5.52332 10.1098 0.0143224 0.00222395 0.00876419
79 1 11.9323 8.6749 10.124 0.00662738 -0.0104131 -0.000156791
80 2 12.205 9.33986 10.7852 -0.000879458 -0.00801535 0.00132202
81 2 5.61153 10.7135 9.24597 0.00447515 0.022012 0.0247349
82 1 7.4151 5.86414 11.8203 -0.00460826 0.000462668 0.00180356
83 2 7.37149 4.93471 2.46 0.0285228 -0.00735603 0.00507899
84 2 6.49041 5.9753 11.4556 -0.00177097 -0.026663 0.0151522
85 1 10.1094 13.8228 11.5919 0.0023796 0.00485466 -0.00348596
86 2 9.69329 4.83475 11.4348 0.0154111 -0.00143879 0.00487594
87 2 11.5567 4.44119 10.3654 0.0237881 0.0281355 0.0146537
88 1 7.7154 12.7892 6.58035 0.000953666 0.00280355 0.00219514
89 2 6.30827 12.6542 7.57185 -0.0080993 0.0081401 0.0182888
90 2 7.72576 13.816 6.2917 -0.0232045 0.00144255 0.0289253
91 1 5.35425 6.50331 5.79542 0.00137268 0.000176789 -0.00942777
92 2 4.3341 8.06625 6.37953 -0.016281 0.00240283 0.0151631
93 2 5.01188 5.81398 6.42242 0.00351163 -0.0242158 -0.0152294
94 1 3.79166 4.69726 7.51195 -0.00226739 0.000353535 0.00565366
95 2 3.01246 4.56481 8.11563 -0.0210787 0.00719225 -0.0350635
96 2 4.88221 6.22849 4.92326 0.0118169 -0.0107066 0.0220265
