ITEM: TIMESTEP
0
ITEM: NUMBER OF ATOMS
96
ITEM: BOX BOUNDS pp pp pp
2.9236100000000000e+00 1.2773600000000000e+01
4.0306300000000004e+00 1.3880599999999999e+01
2.1372399999999998e+00 1.1987200000000000e+01
ITEM: ATOMS id type x y z vx vy vz
1 1 7.20015 13.6701 3.44731 -0.000792618 -0.000156608 -0.00539769
2 2 6.8507 12.819 3.39274 0.0101319 -0.0161699 -0.0108415
3 2 12.342 13.3006 11.3888 0.00744385 0.0106915 0.000815874
4 1 3.97776 12.1753 10.9218 0.00295129 -0.000363823 -0.000674147
5 2 3.51006 11.3689 11.004 0.0217237 0.0109475 0.0237585
6 2 4.41275 12.0305 10.0892 -0.0375796 -0.0160406 -0.0174691
7 1 12.493 7.196 3.98082 -0.00176186 0.0022172 -0.00553047
8 2 11.5769 6.68679 3.89843 -0.00107163 0.00624308 -0.00586486
9 2 7.77338 8.45845 7.39155 -0.0537525 0.0159721 -0.0120805
10 1 7.00151 8.65331 8.02847 0.00791605 -0.00266083 -0.00317754
11 2 6.19485 8.29695 7.67743 -0.00441308 -0.00407767 0.00686801
12 2 6.49766 10.3135 8.78826 -0.0040628 -0.0123274 -0.0235184
13 1 6.87318 8.30248 10.9266 -0.00237321 -0.00142895 -0.00188988
14 2 7.05392 8.27883 9.92476 -0.0064559 0.00801697 0.0098133
15 2 6.09547 7.70984 11.0602 0.0246226 -0.0146735 0.0134501
16 1 9.3937 7.62652 11.4398 0.00163943 0.00470091 0.0045109
17 2 9.73033 7.22298 2.40341 0.013721 -0.0156209 0.0092055
18 2 8.41715 7.66681 11.5041 -0.00360218 -0.0139087 -0.0104454
19 1 4.02293 7.35771 11.5423 -0.000654732 0.00285409 0.0035734
20 2 3.66714 7.20095 2.6078 0.0161833 0.0205626 -0.010734
21 2 11.5118 9.63922 10.8381 -0.0166097 0.00125734 -0.0151493
22 1 9.78107 10.2546 2.26774 0.00183715 0.00709972 -0.00482145
23 2 9.17851 10.3051 3.06099 0.00762368 -0.00646421 -0.0146188
24 2 9.60144 9.42606 11.7007 -0.0125475 0.0172179 -0.00109576
25 1 12.6665 8.79036 6.19217 -0.00104307 -0.00611082 0.00760039
26 2 3.2066 9.65031 6.0989 -0.0224948 -0.00621041 0.0108315
27 2 4.58442 6.23151 4.24823 0.0118252 -0.0128899 0.0153822
28 1 10.0586 6.19054 4.07155 -0.00312847 -0.00145773 -0.00523622
29 2 10.2256 5.25674 4.39381 0.00912643 0.0216919 -0.00189993
30 2 9.52596 6.72119 4.68459 -0.0131973 -0.0153742 0.00975252
31 1 4.56518 10.9924 5.45162 0.000314693 -0.0022601 0.00396504
32 2 3.69479 11.3391 5.11546 -0.0178933 -0.00660735 -0.000126327
33 2 5.08083 10.7989 4.67076 0.0161697 -0.00450873 0.00416493
34 1 7.34845 4.57737 9.39433 0.00312668 -3.80491e-05 0.00241721
35 2 8.04469 13.7842 9.5468 -0.00882323 0.012768 0.014477
36 2 6.84554 4.66108 10.2056 0.0240597 0.0114532 -0.0205499
37 1 9.04694 12.2493 10.2496 0.00155686 0.000285632 0.00318853
38 2 9.89585 12.2193 8.61158 -0.0142249 0.0241686 -0.00747351
39 2 9.4523 11.6748 10.9473 0.00336487 -0.0177252 -0.0206138
40 1 12.4922 13.0142 5.34734 0.00238253 -0.000797533 0.00126871
41 2 4.79991 5.25439 5.49678 0.00374357 0.00602228 0.00618245
42 2 11.5552 13.1716 5.16702 -0.0235428 0.00498897 0.00904057
43 1 5.26646 5.87628 4.90502 0.00238134 0.000787362 -0.00114657
44 2 12.3849 7.87029 4.69438 0.00233202 -0.0223622 -0.00242144
45 2 6.70218 4.10476 4.2406 -0.00648057 -0.0112337 0.0213634
46 1 10.2141 11.9505 7.67063 0.0077949 0.00261126 0.001874
47 2 9.32481 11.7167 7.18173 0.0296295 -0.00349543 0.0046972
48 2 10.712 10.5945 7.84358 -0.0134342 -0.0199646 0.0153032
49 1 9.81689 6.4982 9.01616 -0.000288639 -0.00253231 -0.00354616
50 2 9.22049 5.75805 9.32195 0.00447406 0.0127464 0.0175928
51 2 9.88642 7.05934 9.80714 -0.00781014 0.0405924 0.0334837
52 1 8.31206 9.81939 4.88468 -0.00111721 0.00118585 -4.68405e-05
53 2 8.68008 9.0506 5.31103 0.00730837 0.0040203 -0.00882637
54 2 8.17426 10.585 5.50869 0.0197037 0.0218672 0.0284488
55 1 6.09307 10.9028 2.85644 -0.00605804 -0.00879 -0.000734565
56 2 6.81771 10.5181 2.36052 0.00154995 -0.0298852 -0.0200851
57 2 5.35323 10.9872 2.17816 0.0160657 -0.015959 0.0162316
58 1 6.6256 11.2902 9.08996 0.00133867 -0.0017552 -0.000761522
59 2 4.00578 13.2537 7.89185 0.0033348 -0.0262915 0.00204461
60 2 8.34929 11.684 9.78733 0.00967731 0.00231011 -0.00543375
61 1 7.67935 4.86423 6.47262 -0.000343829 -0.00253014 -0.00185158
62 2 7.66393 4.98423 7.39799 0.0319224 0.0259031 0.0281225
63 2 6.91368 5.31741 6.16646 -0.0270235 0.00765831 0.00976116
64 1 4.34888 12.3574 8.03785 -0.000803547 0.000289551 -0.00316916
65 2 4.42138 11.9539 7.19517 -0.0200083 0.00597645 -0.0142876
66 2 12.5978 13.325 6.22097 0.0133466 -0.0227204 -0.0042087
67 1 10.893 9.4929 8.04294 -0.00277183 0.00743293 0.00168965
68 2 11.8199 9.21058 7.25749 0.0254263 -0.00731035 -0.0442463
69 2 11.4415 9.53648 8.9245 -0.0141825 0.0102191 0.0222549
70 1 9.82624 13.2886 4.28151 0.00260822 -0.00129055 0.00484247
71 2 10.1411 13.2108 3.37131 -0.0173661 0.0178946 0.00723493
72 2 8.9127 13.572 4.15878 0.0161263 0.0150074 -0.00551309
73 1 9.24921 7.53578 6.31195 0.00345006 0.00158783 0.003127
74 2 8.63976 6.8361 6.37433 0.0158257 0.00706249 -0.00236542
75 2 9.72581 7.4099 7.10397 -0.0253901 -0.0155059 0.00971545
76 1 12.2538 5.76964 9.67613 -0.00476489 -0.00758176 0.00199948
77 2 11.5048 6.09232 9.17143 0.0104716 0.0257523 0.0284673
78 2 3.55422 6.71479 10.925 -0.0114614 0.002477 0.0269067
79 1 12.286 9.47888 10.2768 -0.00183094 0.00469885 0.000689763
80 2 12.4687 8.56661 10.5214 -0.00380731 0.0119625 -0.00854877
81 2 5.83942 11.7739 8.75993 -0.00317224 -0.0172102 0.0049313
82 1 5.71907 5.13128 11.463 -0.00490759 0.00589727 0.000585095
83 2 6.12349 4.63326 2.39975 0.0153427 0.00638777 -0.000446716
84 2 5.39927 6.03729 11.6833 -0.0200262 -0.00749554 0.00706155
85 1 11.4695 13.7877 11.358 0.00327947 0.00247551 -0.00464533
86 2 10.8342 13.16 10.9494 -0.00815833 0.0235948 0.0177065
87 2 11.9245 4.92362 10.1175 -0.00401416 -0.0201789 -0.0236304
88 1 7.76023 11.9741 6.72475 -0.00202036 -0.00767301 -0.00138716
89 2 7.41813 11.8447 7.65967 0.013777 0.00766475 -0.0239292
90 2 7.91075 12.9318 6.48457 -0.0108163 0.00809157 0.00429656
91 1 4.83156 7.287 7.04218 -0.00135653 0.00277085 0.000385413
92 2 3.96442 7.8898 6.89551 0.0135222 -0.00317654 -0.0197806
93 2 4.17098 5.78362 7.3514 -0.00332911 0.00141521 0.015136
94 1 3.42272 5.11912 7.27591 -0.00435109 -0.000935681 -0.00274457
95 2 12.6643 5.33125 8.02797 -0.0146021 0.015463 0.00285974
96 2 5.05721 6.99504 6.10231 -0.00328216 -0.0373748 -0.0211005
ITEM: TIMESTEP
1
ITEM: NUMBER OF ATOMS
96
ITEM: BOX BOUNDS pp pp pp
2.9236100000000000e+00 1.2773600000000000e+01
4.0306300000000004e+00 1.3880599999999999e+01
2.1372399999999998e+00 1.1987200000000000e+01
ITEM: ATOMS id type x y z vx vy vz
1 1 7.19973 13.6701 3.44467 -0.000946032 0.000256929 -0.00514012
2 2 6.85524 12.8084 3.38654 0.00832866 -0.0251861 -0.0137801
3 2 12.3449 13.3061 11.389 0.00397305 0.0112592 -3.61312e-05
4 1 3.97924 12.1751 10.9215 0.00298926 -0.000271622 -0.000509302
5 2 3.52012 11.3733 11.016 0.0180597 0.00615306 0.0246647
6 2 4.39433 12.0229 10.0798 -0.0359659 -0.0141127 -0.0201361
7 1 12.4921 7.19707 3.97807 -0.0018768 0.00205636 -0.00549614
8 2 11.5776 6.69086 3.89573 0.00392622 0.00991798 -0.00500248
9 2 7.74474 8.46657 7.38647 -0.0593165 0.0162573 -0.00918515
10 1 7.00562 8.65203 8.0269 0.00844046 -0.00245542 -0.00304995
11 2 6.19196 8.29414 7.67997 -0.0071485 -0.00701662 0.0035115
12 2 6.49611 10.3089 8.7769 -0.00194566 -0.00565947 -0.0216674
13 1 6.87198 8.30172 10.9256 -0.00240003 -0.00158973 -0.00222745
14 2 7.05001 8.28291 9.93145 -0.0091146 0.00818089 0.0163857
15 2 6.10845 7.70331 11.0666 0.0268502 -0.0117587 0.0119504
16 1 9.39458 7.62889 11.4421 0.00189842 0.00474475 0.00450548
17 2 9.73697 7.21487 2.40821 0.0124549 -0.0165374 0.00942755
18 2 8.41449 7.6599 11.4989 -0.00671575 -0.0137722 -0.0102952
19 1 4.02263 7.35906 11.544 -0.000535162 0.0025539 0.00327038
20 2 3.67493 7.21131 2.60198 0.014769 0.020807 -0.0116657
21 2 11.5035 9.64013 10.8307 -0.0166588 0.00233791 -0.0141997
22 1 9.78198 10.2583 2.2654 0.00181105 0.00760538 -0.00457164
23 2 9.18296 10.3015 3.05312 0.00988685 -0.00756159 -0.016356
24 2 9.59476 9.43331 11.6998 -0.0141124 0.0116102 -0.00288082
25 1 12.6659 8.78738 6.19616 -0.00137545 -0.00580392 0.0083939
26 2 3.19599 9.64662 6.10369 -0.0194125 -0.00808884 0.00800675
27 2 4.59086 6.22413 4.25755 0.0132852 -0.0162458 0.0212317
28 1 10.057 6.18976 4.06884 -0.00314876 -0.00162817 -0.00561354
29 2 10.2293 5.26806 4.39314 0.00587492 0.0230061 -0.000635486
30 2 9.51965 6.71311 4.69039 -0.011898 -0.0169468 0.0132076
31 1 4.56525 10.9913 5.45361 -6.24319e-05 -0.00229089 0.003969
32 2 3.68706 11.336 5.11568 -0.0124857 -0.00606957 0.00110173
33 2 5.08905 10.7968 4.67243 0.0163148 -0.00364654 0.00282569
34 1 7.35009 4.57739 9.39543 0.00342079 0.000146374 0.00190943
35 2 8.04034 13.7901 9.55445 -0.00794582 0.0101532 0.0160831
36 2 6.8568 4.6669 10.1963 0.0202626 0.0119993 -0.0155276
37 1 9.04772 12.2494 10.2511 0.00158287 0.000114442 0.00295689
38 2 9.88917 12.2308 8.60723 -0.0123504 0.0219806 -0.00992942
39 2 9.45336 11.6657 10.9366 0.00109204 -0.0186751 -0.0217513
40 1 12.4934 13.0138 5.3479 0.00225696 -0.000973872 0.000941409
41 2 4.80123 5.25788 5.49899 0.00145258 0.00770726 0.00277006
42 2 11.5433 13.1739 5.17127 -0.0229781 0.00406908 0.0081845
43 1 5.26763 5.87668 4.90439 0.00234912 0.000770946 -0.00135615
44 2 12.3862 7.85922 4.69359 0.00283028 -0.0216364 -0.000518811
45 2 6.69942 4.09987 4.25126 -0.0041255 -0.00878452 0.0203922
46 1 10.2179 11.9519 7.67162 0.00752784 0.00314692 0.00208582
47 2 9.33985 11.7152 7.18395 0.0303299 -0.00255076 0.00397084
48 2 10.7055 10.5842 7.85111 -0.0123962 -0.0213445 0.0147874
49 1 9.8167 6.49685 9.01438 -0.000458074 -0.00278374 -0.00345363
50 2 9.2232 5.7652 9.33018 0.00627529 0.0156929 0.0152809
51 2 9.88242 7.07997 9.82412 -0.00835291 0.0407102 0.0327744
52 1 8.31148 9.82007 4.8846 -0.00120059 0.00158278 -0.000212339
53 2 8.68383 9.05295 5.30748 0.00772709 0.00536411 -0.00539554
54 2 8.18446 10.5944 5.52255 0.0211595 0.0147676 0.0262375
55 1 6.08995 10.8984 2.856 -0.00631493 -0.00877151 -0.000997961
56 2 6.81788 10.5031 2.35048 -0.00145974 -0.0297871 -0.0195187
57 2 5.36298 10.9793 2.18746 0.0220497 -0.015701 0.0202766
58 1 6.62629 11.2892 9.08954 0.00141154 -0.00229014 -0.000921338
59 2 4.00741 13.2411 7.89258 0.0028272 -0.0229596 0.000905102
60 2 8.3549 11.6859 9.78573 0.0124852 0.00513252 -0.00119671
61 1 7.67925 4.86293 6.47162 -0.000135446 -0.00262631 -0.00206252
62 2 7.67969 4.99727 7.41374 0.0310534 0.0260451 0.0330891
63 2 6.89918 5.32164 6.17089 -0.0299094 0.00864999 0.00846808
64 1 4.34846 12.3576 8.03636 -0.000840168 0.000268974 -0.00281851
65 2 4.41142 11.9563 7.18639 -0.0197834 0.00368219 -0.0205148
66 2 12.605 13.3143 6.22007 0.0153228 -0.0199275 0.00087305
67 1 10.8916 9.49653 8.04374 -0.00274411 0.00708513 0.00154442
68 2 11.8336 9.20568 7.2328 0.0293825 -0.01257 -0.054136
69 2 11.4347 9.54139 8.93631 -0.012866 0.00921797 0.0240902
70 1 9.82759 13.288 4.28392 0.00279546 -0.00120274 0.00479695
71 2 10.1327 13.2197 3.37489 -0.0156419 0.0177487 0.00672911
72 2 8.9202 13.5795 4.15621 0.0135457 0.0152283 -0.00449932
73 1 9.25091 7.53665 6.31343 0.00337132 0.00191232 0.0027977
74 2 8.64629 6.83807 6.37307 0.00959754 0.000362592 -0.00301679
75 2 9.71442 7.40234 7.11044 -0.0196495 -0.0144441 0.0165702
76 1 12.2515 5.76585 9.67713 -0.00432348 -0.00758178 0.00201502
77 2 11.5084 6.10617 9.18506 0.00364601 0.0297317 0.0259337
78 2 3.5489 6.71682 10.9394 -0.00998451 0.00533956 0.0303431
79 1 12.2851 9.48126 10.2772 -0.00186903 0.0048614 0.000923935
80 2 12.4673 8.57221 10.517 -0.00160985 0.010092 -0.00889779
81 2 5.8375 11.7654 8.7624 -0.0044539 -0.0165628 0.00495244
82 1 5.71661 5.13423 11.4633 -0.00492448 0.0058927 0.00062146
83 2 6.13076 4.63764 2.3991 0.0136701 0.0111285 -0.00220319
84 2 5.38935 6.03277 11.6872 -0.0196844 -0.0103767 0.00870588
85 1 11.4712 13.7889 11.3557 0.00335822 0.00222683 -0.00456294
86 2 10.8306 13.1722 10.9584 -0.00656063 0.0244711 0.0181254
87 2 11.9225 4.91315 10.1063 -0.00395871 -0.0216559 -0.0211225
88 1 7.75926 11.9702 6.72401 -0.00182944 -0.00778728 -0.00161987
89 2 7.42479 11.8492 7.64776 0.0125235 0.00995478 -0.0228743
90 2 7.90473 12.9359 6.48751 -0.0132187 0.00788035 0.00734728
91 1 4.83082 7.28846 7.04238 -0.00156451 0.00301205 0.000368577
92 2 3.97104 7.88846 6.88538 0.0129129 -0.00217586 -0.0205658
93 2 4.16931 5.7846 7.35892 -0.00346134 0.00235261 0.0147956
94 1 3.42053 5.1186 7.27455 -0.00440194 -0.00111043 -0.00266587
95 2 12.6573 5.33883 8.02948 -0.0130946 0.0146065 0.00277632
96 2 5.05606 6.9763 6.09149 -0.00152043 -0.0370922 -0.0211927
ITEM: TIMESTEP
2
ITEM: NUMBER OF ATOMS
96
ITEM: BOX BOUNDS pp pp pp
2.9236100000000000e+00 1.2773600000000000e+01
4.0306300000000004e+00 1.3880599999999999e+01
2.1372399999999998e+00 1.1987200000000000e+01
ITEM: ATOMS id type x y z vx vy vz
1 1 7.1992 13.6704 3.44217 -0.00120267 0.000574631 -0.00481549
2 2 6.85903 12.7938 3.37896 0.00720703 -0.0318845 -0.0163556
3 2 12.346 13.3119 11.3888 0.000642752 0.0113002 -0.00102671
4 1 3.98075 12.175 10.9213 0.00305345 -0.000132593 -0.00037127
5 2 3.52812 11.3751 11.0287 0.0137677 0.000470002 0.0260679
6 2 4.37678 12.0164 10.0691 -0.0342143 -0.0119462 -0.0228134
7 1 12.4911 7.19806 3.97532 -0.00198457 0.00187171 -0.00548222
8 2 11.5808 6.69671 3.89343 0.0085774 0.013259 -0.00429938
9 2 7.71406 8.47471 7.38236 -0.0617141 0.0160202 -0.00836396
10 1 7.00995 8.65085 8.02542 0.00875488 -0.00224 -0.00283676
11 2 6.1877 8.28993 7.68094 -0.00975831 -0.00960453 0.000683614
12 2 6.49571 10.3078 8.76659 0.000522943 0.00163761 -0.0193509
13 1 6.87078 8.30089 10.9244 -0.002364 -0.0016942 -0.00246242
14 2 7.04481 8.28701 9.94115 -0.0115959 0.00814386 0.0215615
15 2 6.12232 7.69808 11.0722 0.028078 -0.009594 0.0104077
16 1 9.3956 7.63126 11.4443 0.00215696 0.00474564 0.00452452
17 2 9.74278 7.20644 2.41284 0.0104832 -0.0169011 0.00856248
18 2 8.41043 7.65304 11.4938 -0.00909957 -0.0137129 -0.0100022
19 1 4.02239 7.36026 11.5456 -0.000359507 0.00230838 0.00291127
20 2 3.68191 7.22176 2.59613 0.0129648 0.0209171 -0.0108503
21 2 11.4951 9.64156 10.8239 -0.0165089 0.00327252 -0.0130973
22 1 9.78288 10.2622 2.26317 0.00181343 0.00808676 -0.00436094
23 2 9.1884 10.2975 3.04463 0.0115332 -0.00814648 -0.0169926
24 2 9.58733 9.43767 11.6978 -0.0154688 0.00588396 -0.00508473
25 1 12.6651 8.78456 6.20056 -0.0018011 -0.00547342 0.00921673
26 2 3.18719 9.64222 6.10691 -0.0152153 -0.00897931 0.00446758
27 2 4.59771 6.21526 4.26946 0.0133505 -0.0187368 0.025543
28 1 10.0555 6.18891 4.06594 -0.00321058 -0.00170655 -0.00597373
29 2 10.2315 5.27975 4.39317 0.00301866 0.023083 0.000904406
30 2 9.51406 6.70424 4.6978 -0.0103039 -0.0185163 0.0161405
31 1 4.56512 10.9901 5.45559 -0.000450865 -0.00231544 0.00392185
32 2 3.6823 11.333 5.11656 -0.00618811 -0.0058065 0.00242449
33 2 5.09714 10.7953 4.67359 0.0157095 -0.00250648 0.00213778
34 1 7.35187 4.57752 9.39624 0.0037258 0.000367173 0.00129162
35 2 8.03674 13.7944 9.56288 -0.00593512 0.00662904 0.0175958
36 2 6.8658 4.67308 10.1901 0.0152087 0.0129174 -0.00893514
37 1 9.04852 12.2494 10.2526 0.00161729 -3.65684e-05 0.00272258
38 2 9.8835 12.2413 8.60165 -0.0101932 0.019743 -0.0123151
39 2 9.45339 11.6561 10.9255 -0.000678288 -0.0196281 -0.0222738
40 1 12.4945 13.0132 5.34828 0.00201744 -0.00114393 0.000570971
41 2 4.80136 5.2621 5.49955 -0.000981762 0.00883185 -0.000362423
42 2 11.5322 13.1757 5.1752 -0.0205094 0.00288058 0.00779248
43 1 5.26881 5.87705 4.90366 0.00241353 0.000706536 -0.00150739
44 2 12.3877 7.84865 4.69386 0.00326662 -0.0203674 0.0017599
45 2 6.69805 4.09598 4.26099 -0.000975625 -0.0071478 0.017797
46 1 10.2216 11.9536 7.67272 0.00726875 0.00370198 0.00231556
47 2 9.35514 11.7141 7.1857 0.0305531 -0.00168329 0.00276909
48 2 10.6996 10.5732 7.85837 -0.0111364 -0.0231492 0.0142219
49 1 9.81643 6.49542 9.01271 -0.000598692 -0.0028492 -0.00312904
50 2 9.22677 5.77374 9.33723 0.00782763 0.0181445 0.0129278
51 2 9.87807 7.10005 9.83991 -0.00919232 0.0384859 0.0289873
52 1 8.31086 9.82097 4.88447 -0.00129158 0.00206008 -0.000285526
53 2 8.68781 9.05596 5.30563 0.00818903 0.00661007 -0.00203061
54 2 8.19542 10.5998 5.53493 0.022671 0.0064213 0.022707
55 1 6.08676 10.894 2.85544 -0.00637399 -0.00880634 -0.00121608
56 2 6.81625 10.4883 2.341 -0.00546109 -0.0290784 -0.0179675
57 2 5.37528 10.9715 2.19844 0.025966 -0.0151629 0.0226838
58 1 6.62701 11.2879 9.08904 0.00146136 -0.00289073 -0.00110054
59 2 4.00861 13.2307 7.89276 0.00164274 -0.0178407 -0.00018134
60 2 8.36178 11.6891 9.78613 0.0146052 0.00775812 0.00248877
61 1 7.67921 4.8616 6.47056 -5.47467e-05 -0.00262752 -0.00210012
62 2 7.69498 5.01028 7.43108 0.0300327 0.0256862 0.034445
63 2 6.88377 5.32606 6.17493 -0.0305915 0.0083901 0.0081923
64 1 4.34804 12.3577 8.03503 -0.00084152 0.000124254 -0.00252998
65 2 4.4016 11.9576 7.17466 -0.0194838 0.00149167 -0.0258255
66 2 12.6131 13.3051 6.22184 0.0171735 -0.017002 0.00615298
67 1 10.8903 9.49999 8.04448 -0.00272797 0.00676898 0.00146877
68 2 11.8493 9.19801 7.20335 0.0334378 -0.0184929 -0.0633845
69 2 11.4286 9.5457 8.94859 -0.0117184 0.00788178 0.0241906
70 1 9.82904 13.2874 4.28631 0.00297533 -0.00112376 0.0047668
71 2 10.1255 13.2285 3.37804 -0.0131337 0.0173215 0.0055643
72 2 8.92625 13.5872 4.15428 0.0104003 0.0156357 -0.00298136
73 1 9.25258 7.53769 6.31475 0.00331188 0.00223288 0.00248222
74 2 8.64936 6.83646 6.37131 0.00253248 -0.0067194 -0.00425453
75 2 9.70616 7.39546 7.12054 -0.0133896 -0.0128895 0.0236239
76 1 12.2495 5.76206 9.67815 -0.0038382 -0.00759031 0.00202942
77 2 11.5084 6.12205 9.19736 -0.00365084 0.0336429 0.0233755
78 2 3.54424 6.72013 10.9553 -0.00890949 0.00749641 0.032743
79 1 12.2841 9.48374 10.2777 -0.00191659 0.00507153 0.00115123
80 2 12.4671 8.5767 10.5125 0.000581831 0.0076291 -0.00902174
81 2 5.83497 11.7573 8.76488 -0.00564418 -0.0155805 0.0050266
82 1 5.71415 5.13717 11.4636 -0.00492392 0.00586065 0.000664115
83 2 6.13716 4.64439 2.39755 0.0119402 0.0157102 -0.00392871
84 2 5.37959 6.02691 11.692 -0.019472 -0.0127273 0.0104305
85 1 11.4729 13.7899 11.3534 0.00346047 0.00207204 -0.00442781
86 2 10.8276 13.1845 10.9675 -0.00552146 0.0241969 0.017962
87 2 11.9205 4.90196 10.0964 -0.00408525 -0.0228578 -0.0189427
88 1 7.7584 11.9663 6.72313 -0.00160366 -0.00782551 -0.00194934
89 2 7.43065 11.8547 7.6368 0.0106405 0.0117263 -0.020177
90 2 7.89753 12.9397 6.49192 -0.0155287 0.00724443 0.0101193
91 1 4.83 7.29001 7.04255 -0.00171571 0.00317524 0.000259263
92 2 3.97733 7.88762 6.87494 0.0123175 -0.00123872 -0.0209529
93 2 4.16752 5.78597 7.3662 -0.0037745 0.00302122 0.0141378
94 1 3.41832 5.11801 7.27324 -0.00446562 -0.00121741 -0.00252021
95 2 12.6512 5.34586 8.03075 -0.0112031 0.0132888 0.00201475
96 2 5.05569 6.95795 6.08112 -0.000192834 -0.0357433 -0.0193513
ITEM: TIMESTEP
3
ITEM: NUMBER OF ATOMS
96
ITEM: BOX BOUNDS pp pp pp
2.9236100000000000e+00 1.2773600000000000e+01
4.0306300000000004e+00 1.3880599999999999e+01
2.1372399999999998e+00 1.1987200000000000e+01
ITEM: ATOMS id type x y z vx vy vz
1 1 7.19853 13.6707 3.43985 -0.00155186 0.000760992 -0.00444421
2 2 6.86245 12.7765 3.37018 0.00688082 -0.0359217 -0.0185615
3 2 12.3455 13.3174 11.388 -0.00227972 0.0107215 -0.00211025
4 1 3.98229 12.175 10.9211 0.00312998 9.96091e-06 -0.000278958
5 2 3.53388 11.3738 11.0421 0.00938994 -0.00535477 0.0277228
6 2 4.36011 12.011 10.057 -0.0326547 -0.00959915 -0.0250098
7 1 12.4901 7.19894 3.97258 -0.00206844 0.00168214 -0.00547913
8 2 11.5862 6.70412 3.89143 0.0125489 0.0160595 -0.00380982
9 2 7.68303 8.48259 7.3781 -0.0607178 0.0152832 -0.0099309
10 1 7.01438 8.64979 8.02407 0.00882805 -0.00202562 -0.00253193
11 2 6.1822 8.28454 7.68066 -0.0119876 -0.0116921 -0.0014019
12 2 6.49663 10.3105 8.75754 0.00326105 0.0089959 -0.0167446
13 1 6.86962 8.30003 10.9231 -0.00226212 -0.00173323 -0.002568
14 2 7.03842 8.29105 9.95301 -0.0137767 0.00793987 0.0248155
15 2 6.13653 7.69372 11.077 0.0281355 -0.00835846 0.00892793
16 1 9.39674 7.63363 11.4466 0.00239726 0.00470824 0.0045642
17 2 9.74745 7.19797 2.41677 0.00788731 -0.0167533 0.00672852
18 2 8.40539 7.64619 11.4889 -0.010552 -0.0137084 -0.00959981
19 1 4.02227 7.36136 11.5469 -0.000125822 0.00212627 0.0025102
20 2 3.68789 7.23223 2.59113 0.0108405 0.0209667 -0.00834151
21 2 11.487 9.64341 10.8176 -0.0161072 0.0040207 -0.0118366
22 1 9.78379 10.2664 2.26103 0.00184069 0.00850955 -0.00421077
23 2 9.19449 10.2934 3.03612 0.0125077 -0.00822096 -0.0164477
24 2 9.57929 9.4392 11.6947 -0.0164969 0.000520733 -0.00745352
25 1 12.6641 8.7819 6.20538 -0.00232129 -0.00511818 0.0100545
26 2 3.18078 9.63764 6.10816 -0.0098082 -0.00880754 0.000128119
27 2 4.60421 6.20539 4.2831 0.0118235 -0.0201923 0.0280258
28 1 10.0538 6.18805 4.06286 -0.00331845 -0.00169206 -0.00630743
29 2 10.2323 5.29115 4.39404 0.000644048 0.0218793 0.00265794
30 2 9.50935 6.6946 4.70653 -0.00841391 -0.0200236 0.0184656
31 1 4.5648 10.9889 5.45753 -0.000825184 -0.00234191 0.00383504
32 2 3.68087 11.3302 5.11811 0.000540797 -0.00565538 0.00370498
33 2 5.10476 10.7943 4.67457 0.0144153 -0.00112277 0.00208225
34 1 7.35381 4.57776 9.39672 0.00403516 0.000609755 0.000608757
35 2 8.0344 13.7967 9.57205 -0.00313249 0.00249429 0.0189948
36 2 6.87201 4.67981 10.1874 0.00932824 0.0141523 -0.00142721
37 1 9.04934 12.2494 10.2539 0.00167158 -0.000155524 0.00249727
38 2 9.87897 12.2506 8.59491 -0.0078454 0.0175326 -0.0144915
39 2 9.45268 11.6461 10.9144 -0.00186347 -0.0205818 -0.0221144
40 1 12.4954 13.0126 5.34847 0.00168497 -0.00129749 0.000196509
41 2 4.80025 5.26671 5.49863 -0.00353664 0.00926457 -0.00308555
42 2 11.5228 13.1768 5.17906 -0.0163567 0.00147148 0.00783539
43 1 5.27005 5.87738 4.90288 0.00258654 0.000586604 -0.00159633
44 2 12.3895 7.83885 4.69535 0.00367623 -0.0186901 0.00427704
45 2 6.69844 4.09272 4.26906 0.0027482 -0.00613121 0.0139341
46 1 10.2252 11.9556 7.67393 0.00703023 0.00427096 0.00255525
47 2 9.37041 11.7135 7.18672 0.0302249 -0.000924012 0.00107162
48 2 10.6944 10.5611 7.86533 -0.00971305 -0.0254263 0.0136435
49 1 9.8161 6.494 9.01125 -0.00069953 -0.00273075 -0.00261656
50 2 9.23102 5.78335 9.34311 0.00892675 0.0198169 0.0106514
51 2 9.87323 7.11846 9.85311 -0.0102448 0.0342551 0.0226614
52 1 8.31019 9.82213 4.88432 -0.00138002 0.00258234 -0.000284684
53 2 8.69202 9.05956 5.30545 0.00868763 0.0076951 0.00118674
54 2 8.20713 10.6008 5.54525 0.0240872 -0.00256874 0.0182269
55 1 6.08358 10.8896 2.85479 -0.00622588 -0.00888788 -0.00135495
56 2 6.81242 10.474 2.33252 -0.0101068 -0.0279105 -0.0156002
57 2 5.38895 10.9641 2.21015 0.0273398 -0.0142903 0.0230722
58 1 6.62775 11.2863 9.08844 0.0014889 -0.00351977 -0.00129122
59 2 4.00906 13.2233 7.8924 -5.10343e-05 -0.0113608 -0.00117113
60 2 8.3695 11.6936 9.78821 0.0157828 0.0100238 0.00539507
61 1 7.67919 4.8603 6.46952 -9.32108e-05 -0.00252848 -0.00196548
62 2 7.70972 5.02296 7.44819 0.0287792 0.0247402 0.0323085
63 2 6.86858 5.33003 6.17908 -0.0290978 0.00691326 0.00883614
64 1 4.34762 12.3577 8.03383 -0.000815536 -0.000132317 -0.00233686
65 2 4.39194 11.9578 7.16056 -0.0191262 -0.000344825 -0.0297122
66 2 12.6221 13.2973 6.22623 0.0187722 -0.0141213 0.0110397
67 1 10.8889 9.5033 8.04521 -0.0027094 0.00649252 0.00147127
68 2 11.867 9.18719 7.16942 0.037425 -0.0251637 -0.0719034
69 2 11.423 9.54927 8.9605 -0.0109419 0.00625003 0.0225473
70 1 9.83057 13.2869 4.28868 0.00313716 -0.00104932 0.0047446
71 2 10.1196 13.2371 3.38045 -0.00997232 0.0166555 0.00389334
72 2 8.9306 13.5952 4.15323 0.00695165 0.0161312 -0.00100758
73 1 9.25422 7.53888 6.31592 0.00325963 0.00248891 0.00223907
74 2 8.64882 6.83135 6.36882 -0.00411426 -0.013114 -0.00574345
75 2 9.70103 7.38945 7.13407 -0.00768472 -0.0110082 0.0296438
76 1 12.2477 5.75826 9.67916 -0.00335332 -0.00760518 0.00202611
77 2 11.5048 6.13982 9.20844 -0.010805 0.0370705 0.0212365
78 2 3.53999 6.72431 10.9722 -0.00837735 0.00875878 0.0339275
79 1 12.2832 9.48634 10.2784 -0.00197267 0.00531691 0.00137595
80 2 12.4679 8.57984 10.508 0.00269823 0.00481293 -0.00896217
81 2 5.83186 11.7498 8.76742 -0.00674263 -0.0142764 0.00516569
82 1 5.71169 5.14009 11.464 -0.00490819 0.0058002 0.000696566
83 2 6.1427 4.65335 2.39517 0.0102904 0.0199146 -0.00539216
84 2 5.36988 6.02004 11.6977 -0.0194735 -0.0143391 0.0122232
85 1 11.4746 13.7909 11.3513 0.00357906 0.00202209 -0.00424485
86 2 10.8251 13.1964 10.9764 -0.00515951 0.0227644 0.0172032
87 2 11.9184 4.89029 10.0874 -0.00435941 -0.0234885 -0.017263
88 1 7.75766 11.9624 6.72206 -0.00135126 -0.00778936 -0.00235719
89 2 7.43543 11.8609 7.62758 0.00820069 0.0129153 -0.0159916
90 2 7.8892 12.9431 6.49763 -0.0176929 0.00627545 0.0124942
91 1 4.82911 7.29163 7.04264 -0.00181536 0.00326533 6.95953e-05
92 2 3.98336 7.88722 6.86442 0.0119214 -0.000505665 -0.0209043
93 2 4.16553 5.78762 7.37306 -0.00424471 0.00341918 0.0131447
94 1 3.41607 5.11738 7.27203 -0.00453486 -0.00126267 -0.00231548
95 2 12.6461 5.35212 8.03149 -0.00908684 0.0115585 0.000774859
96 2 5.05587 6.94055 6.07214 0.000717661 -0.0332515 -0.0156643
ITEM: TIMESTEP
4
ITEM: NUMBER OF ATOMS
96
ITEM: BOX BOUNDS pp pp pp
2.9236100000000000e+00 1.2773600000000000e+01
4.0306300000000004e+00 1.3880599999999999e+01
2.1372399999999998e+00 1.1987200000000000e+01
ITEM: ATOMS id type x y z vx vy vz
1 1 7.19765 13.6711 3.43773 -0.00197241 0.000799534 -0.00404877
2 2 6.86591 12.7579 3.3604 0.0073336 -0.0371844 -0.0203512
3 2 12.3437 13.3226 11.3867 -0.00458181 0.0094677 -0.00324476
4 1 3.98388 12.175 10.921 0.00320179 0.000111681 -0.000245322
5 2 3.53751 11.3697 11.0564 0.00545648 -0.0105531 0.0293289
6 2 4.34413 12.0068 10.0441 -0.031554 -0.00713451 -0.0262768
7 1 12.4891 7.19974 3.96984 -0.0021119 0.00150723 -0.00547542
8 2 11.5934 6.71277 3.88962 0.015529 0.0181416 -0.00357778
9 2 7.65335 8.48999 7.37243 -0.0563945 0.0141315 -0.0139837
10 1 7.01878 8.64883 8.02289 0.00864885 -0.00182545 -0.00214009
11 2 6.17571 8.27824 7.67954 -0.0136066 -0.0131592 -0.00256938
12 2 6.49898 10.3168 8.74985 0.00617768 0.0158275 -0.0140503
13 1 6.86852 8.29916 10.9218 -0.00209611 -0.00170482 -0.00252565
14 2 7.03103 8.29495 9.96596 -0.0155636 0.00761499 0.0257422
15 2 6.15046 7.68972 11.0811 0.0269526 -0.00815318 0.00760125
16 1 9.398 7.63597 11.4489 0.00260354 0.00463974 0.00461925
17 2 9.75067 7.18969 2.41957 0.00478838 -0.0161659 0.00411504
18 2 8.39988 7.63933 11.4842 -0.0109543 -0.0137226 -0.00911677
19 1 4.02227 7.36239 11.5481 0.000162429 0.0020103 0.00208542
20 2 3.69275 7.24272 2.58779 0.00850244 0.0210387 -0.00435543
21 2 11.479 9.64558 10.8121 -0.0154095 0.00455012 -0.0104345
22 1 9.78472 10.2707 2.25896 0.00188573 0.00884304 -0.00413734
23 2 9.2009 10.2893 3.02819 0.0128137 -0.00781395 -0.0147298
24 2 9.57083 9.43819 11.6904 -0.0170846 -0.0040318 -0.00972812
25 1 12.6628 8.77944 6.21062 -0.00292624 -0.00473783 0.0108793
26 2 3.17738 9.63341 6.10703 -0.0032071 -0.00759739 -0.00501183
27 2 4.60953 6.19507 4.29749 0.00862738 -0.0205113 0.0285222
28 1 10.0521 6.18722 4.05963 -0.00347433 -0.00159163 -0.00660419
29 2 10.2321 5.30163 4.39583 -0.0011863 0.0194354 0.00452646
30 2 9.50565 6.68422 4.71626 -0.00623858 -0.0213885 0.0200989
31 1 4.56429 10.9878 5.45942 -0.00116177 -0.00237773 0.00372417
32 2 3.68285 11.3274 5.12027 0.00721847 -0.00545174 0.00480054
33 2 5.11156 10.7941 4.67567 0.012547 0.000452265 0.00257699
34 1 7.35591 4.57813 9.39685 0.00434224 0.000857024 -8.32062e-05
35 2 8.03361 13.7968 9.58188 1.49526e-05 -0.00186648 0.0202509
36 2 6.87513 4.68723 10.1886 0.00315039 0.0155943 0.00620354
37 1 9.05019 12.2493 10.2551 0.00175592 -0.000234012 0.0022925
38 2 9.87565 12.2588 8.58716 -0.0054104 0.0154256 -0.0163295
39 2 9.45153 11.6355 10.9034 -0.00242695 -0.0215179 -0.0212606
40 1 12.4961 13.0119 5.34848 0.00128807 -0.00142728 -0.00014478
41 2 4.79783 5.27136 5.49646 -0.00614623 0.00894103 -0.00532074
42 2 11.5159 13.1771 5.18304 -0.0108648 -9.15852e-05 0.00825757
43 1 5.2714 5.87764 4.90207 0.00286934 0.000406651 -0.00162171
44 2 12.3914 7.82996 4.69814 0.00409065 -0.0167783 0.00684778
45 2 6.7008 4.08984 4.27493 0.00681749 -0.00559269 0.0091979
46 1 10.2287 11.9579 7.67527 0.00682219 0.00484659 0.00279562
47 2 9.38536 11.7132 7.18677 0.0293066 -0.000285061 -0.00110886
48 2 10.6899 10.5477 7.87201 -0.0081891 -0.0281571 0.0130556
49 1 9.81573 6.49269 9.01009 -0.000751897 -0.00244057 -0.00197071
50 2 9.23569 5.79356 9.34788 0.00938617 0.0204534 0.00856835
51 2 9.86782 7.13431 9.86258 -0.0114089 0.0284831 0.0144442
52 1 8.30948 9.82356 4.88418 -0.00145648 0.00311222 -0.000230723
53 2 8.69649 9.06366 5.30682 0.00921347 0.00855251 0.00416619
54 2 8.21951 10.5972 5.55315 0.0252736 -0.0115605 0.0132097
55 1 6.08053 10.8851 2.85409 -0.00587367 -0.00900805 -0.0013876
56 2 6.80614 10.4604 2.3254 -0.0150199 -0.0264355 -0.0126028
57 2 5.40262 10.9572 2.22151 0.025856 -0.0130392 0.0212011
58 1 6.6285 11.2844 9.08775 0.00149616 -0.00413833 -0.00148433
59 2 4.00856 13.2194 7.89158 -0.00202763 -0.00409099 -0.0020154
60 2 8.37756 11.6992 9.79153 0.0158278 0.011803 0.00734691
61 1 7.67912 4.85908 6.46859 -0.000233412 -0.0023343 -0.00167712
62 2 7.72376 5.03502 7.46339 0.0272401 0.0231899 0.0270876
63 2 6.85467 5.33297 6.18376 -0.0256415 0.00435858 0.0102445
64 1 4.34722 12.3575 8.03269 -0.00077517 -0.000475243 -0.00226412
65 2 4.38247 11.9572 7.14494 -0.0187106 -0.00163534 -0.0318027
66 2 12.6319 13.291 6.23288 0.0200002 -0.0114358 0.0149991
67 1 10.8875 9.50648 8.04596 -0.00266779 0.00625597 0.00155222
68 2 11.8867 9.17285 7.13145 0.0409546 -0.0324574 -0.0793199
69 2 11.4177 9.55195 8.97114 -0.0107073 0.00435571 0.0191817
70 1 9.83217 13.2863 4.29105 0.00326946 -0.000973571 0.00471914
71 2 10.1155 13.2452 3.38193 -0.00633737 0.0158048 0.00194343
72 2 8.9332 13.6034 4.15327 0.00351345 0.0165898 0.00135201
73 1 9.25584 7.54018 6.31699 0.00320012 0.00262681 0.00211694
74 2 8.64524 6.82335 6.36557 -0.00929001 -0.0179004 -0.00716565
75 2 9.69848 7.38445 7.15018 -0.00337694 -0.00892764 0.0335986
76 1 12.2461 5.75445 9.68017 -0.00290889 -0.00761608 0.00198671
77 2 11.4976 6.15912 9.2186 -0.0172276 0.0395986 0.0198801
78 2 3.53586 6.72889 10.9893 -0.00847945 0.00901775 0.0338217
79 1 12.2822 9.48906 10.2791 -0.00203581 0.00558159 0.00160274
80 2 12.4698 8.58151 10.5035 0.00467038 0.00192522 -0.00876865