ITEM: TIMESTEP
0
ITEM: NUMBER OF ATOMS
96
ITEM: BOX BOUNDS pp pp pp
2.9236100000000000e+00 1.2773600000000000e+01
4.0306300000000004e+00 1.3880599999999999e+01
2.1372399999999998e+00 1.1987200000000000e+01
ITEM: ATOMS id type x y z vx vy vz
1 1 8.4932 4.48839 3.30024 -0.00191037 -0.00938995 0.0050579
2 2 8.17035 4.7519 2.40104 0.0328588 0.0219375 -0.00511065
3 2 11.2318 4.51959 7.87064 0.0446369 0.00548325 -0.00642104
4 1 12.399 9.4598 10.8062 -0.00176686 0.00304818 0.00475925
5 2 12.3635 9.69391 11.7379 -0.00614833 0.0048424 -0.0113814
6 2 3.51205 9.60305 10.5911 -0.000230177 -0.00976457 -0.0155393
7 1 11.0787 7.79556 3.44951 -0.00432823 0.00816195 0.00458549
8 2 11.0478 7.02136 3.9969 -0.000190679 -0.00231893 -0.000700955
9 2 7.29035 8.15691 7.12923 -0.00557655 -0.00453284 0.00899207
10 1 7.05898 9.14605 7.13582 0.000905311 -0.00391473 0.00105293
11 2 7.68747 9.67181 6.488 0.0104725 0.0159193 -0.0151066
12 2 5.93265 9.908 8.19239 -0.0216124 -0.014871 -0.000957868
13 1 5.57349 8.25124 2.59264 -0.00203262 -0.000107022 0.00283348
14 2 6.55218 8.16472 2.47891 -0.0312645 0.0153411 -0.0131694
15 2 5.41382 7.9781 3.53433 -0.00732234 0.0254531 0.00322886
16 1 8.40796 7.53644 2.32076 -0.00358488 -0.000254743 -0.00257117
17 2 9.31601 7.88026 2.58378 -0.00417942 -0.0273851 -0.0170133
18 2 8.5544 6.63684 11.8839 -0.0273888 -0.00416873 0.00963843
19 1 4.70466 4.52893 2.75903 0.00977633 0.00415536 -0.000658538
20 2 4.93182 4.10426 11.7426 0.0172094 0.0192204 -0.0287689
21 2 4.35361 7.42575 11.1499 -0.003409 0.00992808 -0.00759006
22 1 9.25785 8.86588 9.89696 -0.00191424 -0.00457211 0.00135368
23 2 8.8734 8.41553 10.6744 0.00711961 -0.00515671 0.000933546
24 2 10.1138 8.43595 9.76421 -0.00387194 0.00365411 0.021331
25 1 12.6702 9.51385 5.0143 0.0039527 0.00309609 -0.000252595
26 2 3.30086 11.2658 5.46431 0.00908247 -0.00165298 -0.00424608
27 2 5.57969 13.4257 4.07669 -0.0131479 -0.00321876 0.0116852
28 1 9.81279 6.10053 5.14709 0.00328892 0.0020455 0.00386063
29 2 9.61529 5.32837 4.5827 0.00332054 0.0404416 0.00778471
30 2 8.95062 6.32966 5.55667 0.0226547 0.00844753 0.030414
31 1 3.46188 12.1853 5.74124 -0.00235933 -0.00688324 -0.00245001
32 2 12.206 13.7842 5.99682 0.0020369 -0.00753292 -0.0182842
33 2 4.3067 12.4723 5.4177 0.0201821 0.0144189 -0.0242694
34 1 8.0432 5.35864 10.4363 -0.00136784 -0.00288797 -9.90434e-05
35 2 7.07516 5.24469 10.3321 -0.00164042 -0.0167334 0.0122437
36 2 8.4414 4.56476 10.1491 0.0244933 0.0360542 -0.0121866
37 1 7.42006 10.9334 10.4976 0.0023735 0.00552174 -0.00666092
38 2 7.77464 11.6055 9.7829 0.0232633 -0.0229005 0.0018344
39 2 7.9385 10.0702 10.4024 0.0195569 0.018756 -0.00918222
40 1 12.0428 4.71204 6.45473 -0.00702673 0.0014357 -0.000371779
41 2 5.96861 11.8754 3.96236 -0.0160592 0.00813269 -0.0125968
42 2 11.3582 5.23406 5.97742 0.00489608 0.0308787 -0.000975581
43 1 6.01518 12.7672 4.57465 0.00469011 0.00237107 0.00243066
44 2 11.2379 8.5606 4.0599 -0.0416167 0.00102448 0.0060452
45 2 7.80772 13.799 3.6102 -0.0235156 -0.0194456 -0.000246014
46 1 8.95011 12.7418 9.11653 -0.00450027 0.000595605 -0.000246758
47 2 8.65507 12.5973 8.19508 -0.00339318 0.000389281 0.00283921
48 2 9.91475 12.4701 9.07655 -0.0299523 0.00194948 0.0107403
49 1 11.4211 7.52557 8.69722 0.0028167 0.00255102 0.000741844
50 2 11.1622 6.6387 8.5192 0.00773027 0.0109088 -0.00351554
51 2 12.1002 7.61099 9.32514 -0.00213653 -0.0211494 0.00428711
52 1 9.1328 10.1619 5.85623 -0.0157995 -0.00454896 -0.00501928
53 2 10.0443 9.95874 6.4332 0.00959724 -0.0174561 -0.00362743
54 2 8.94172 11.1197 5.78333 -0.0257959 0.0162715 0.00304666
55 1 5.6263 10.925 2.6883 0.00130974 0.00105466 0.000841481
56 2 5.49247 9.9501 2.81737 -0.0252479 -0.0547712 0.0229032
57 2 6.3779 11.0339 11.9306 -0.00391169 0.00309588 0.00900707
58 1 5.36743 10.1824 9.12741 -0.000375274 -0.00159894 0.00185009
59 2 3.25563 12.3241 8.88199 0.0117721 -0.00936596 -0.0014403
60 2 6.17549 10.517 9.83051 -0.0168632 0.0397648 -0.00591098
61 1 7.5114 6.56274 7.24653 -0.00587359 -0.000994186 0.0043679
62 2 7.24026 6.23527 8.10267 0.0117486 -0.0188105 0.0126559
63 2 6.75789 6.12613 6.75301 -0.0178282 0.0169154 -0.0134254
64 1 4.2146 12.3699 8.31516 0.0072574 -0.00342029 -0.00644621
65 2 3.89143 12.266 7.42224 -0.0128854 0.0280374 -0.0110276
66 2 4.05945 5.43668 6.86861 0.00803406 -0.00513169 -0.00133596
67 1 11.7755 11.5155 9.12515 0.00722837 0.00251241 0.00143467
68 2 11.7009 10.9527 8.27105 0.0327242 0.0179033 0.00837017
69 2 12.0415 10.8953 9.90298 0.000419166 -0.0250615 -0.00866838
70 1 10.1981 12.4235 2.20572 -0.000898606 -0.00192575 0.0012357
71 2 9.48436 13.0452 2.58728 -0.0148656 -0.000887894 -0.00717891
72 2 9.86313 12.115 11.2495 0.0125111 0.0231702 -0.0130719
73 1 11.4679 9.89482 7.16876 0.00349517 0.00255426 0.00166267
74 2 11.4438 9.06839 7.62757 -0.0173591 0.00873855 0.0024791
75 2 12.1689 9.62718 5.97882 0.00232015 -0.0192711 0.0188354
76 1 11.9726 4.72499 11.7352 -0.00395518 -0.00227086 -0.00392352
77 2 11.791 4.9927 10.8409 0.0155245 0.0111563 -0.00711552
78 2 3.71244 4.48059 2.80841 -0.000667391 0.0106868 0.0104688
79 1 3.91266 6.74665 10.6565 0.00757651 0.00631602 -0.0012688
80 2 3.78671 6.07128 11.3557 -0.00139431 0.0155185 -0.0154161
81 2 4.9259 11.1746 8.9221 0.0173229 -0.0330219 -0.0169791
82 1 5.51208 4.60867 9.51801 0.000506942 -0.00894543 0.00269485
83 2 4.87352 13.7623 9.2559 0.00781184 -0.0161338 -0.0110942
84 2 4.93563 5.28836 9.90699 0.00753736 -0.00499416 -0.0161162
85 1 10.893 4.87991 8.78618 0.00713858 0.00208456 0.00558639
86 2 9.96408 4.66537 8.73072 0.0138297 -0.00712128 -0.0428615
87 2 11.2867 4.10984 11.9443 -0.00306277 -0.0035345 -0.0196678
88 1 8.28739 12.8305 6.11353 -0.00492262 0.000790624 -0.000352611
89 2 7.54316 12.8052 5.49736 0.00343257 0.017721 0.00200436
90 2 8.78343 13.6952 5.99485 0.0154092 0.0187779 0.0089796
91 1 5.02953 8.04779 5.52547 -0.00337238 -0.00640591 0.00167115
92 2 3.66924 9.08756 5.19048 0.0278166 -0.00494556 -0.00736592
93 2 5.70045 8.52856 6.09934 0.0319607 0.013748 -0.038515
94 1 4.8828 5.74198 7.26002 -0.00221183 0.00208984 -0.00222681
95 2 5.09724 5.09689 7.97127 0.00894057 -0.0187506 -0.0294692
96 2 4.92153 7.3009 6.20584 -0.0122953 -0.0118162 0.00121249
ITEM: TIMESTEP
1
ITEM: NUMBER OF ATOMS
96
ITEM: BOX BOUNDS pp pp pp
2.9236100000000000e+00 1.2773600000000000e+01
4.0306300000000004e+00 1.3880599999999999e+01
2.1372399999999998e+00 1.1987200000000000e+01
ITEM: ATOMS id type x y z vx vy vz
1 1 8.4923 4.48372 3.30267 -0.00172869 -0.00932384 0.00469071
2 2 8.18704 4.7631 2.39881 0.0337439 0.0225783 -0.00344363
3 2 11.2544 4.52288 7.86874 0.0457229 0.00778998 -0.000710795
4 1 12.3982 9.4614 10.8086 -0.0014002 0.00332519 0.00460131
5 2 12.3605 9.69612 11.7319 -0.00584575 0.00417935 -0.011876
6 2 3.51065 9.59775 10.5837 -0.0053353 -0.0113638 -0.013696
7 1 11.0765 7.79974 3.45177 -0.00436711 0.00853503 0.00446072
8 2 11.0473 7.01972 3.99721 -0.00164456 -0.0039317 0.00175783
9 2 7.28802 8.15513 7.13376 -0.00367378 -0.00242591 0.00907785
10 1 7.05937 9.14422 7.13633 0.000668636 -0.00339661 0.000951721
11 2 7.69293 9.67866 6.48127 0.0111331 0.0110603 -0.0114391
12 2 5.92122 9.90117 8.19383 -0.0236082 -0.0126555 0.00647409
13 1 5.57251 8.25118 2.59412 -0.00197259 -8.05372e-05 0.00305186
14 2 6.53589 8.17214 2.47249 -0.0326268 0.0141791 -0.0124834
15 2 5.41034 7.9911 3.53524 -0.00649498 0.0262847 0.000858531
16 1 8.40623 7.53641 2.3195 -0.00336556 0.000131347 -0.00247663
17 2 9.31313 7.86567 2.57543 -0.00690781 -0.0306544 -0.0161811
18 2 8.5407 6.63428 11.8885 -0.0274296 -0.00618572 0.00863005
19 1 4.70952 4.53097 2.75866 0.00966095 0.00400133 -0.000857608
20 2 4.94002 4.1145 11.7293 0.0152832 0.021992 -0.023984
21 2 4.35233 7.43157 11.1462 -0.00166837 0.0133905 -0.00717847
22 1 9.25687 8.86362 9.89765 -0.0020282 -0.00448103 0.00142457
23 2 8.87663 8.4126 10.6751 0.00554295 -0.00654524 0.00203937
24 2 10.1123 8.43782 9.77433 -0.00168817 0.00379278 0.0189667
25 1 12.6721 9.51545 5.01414 0.00384909 0.00326597 -0.000367814
26 2 3.30546 11.2643 5.4618 0.00927038 -0.00452181 -0.00582351
27 2 5.57217 13.4257 4.08127 -0.0168688 0.00313007 0.00676745
28 1 9.81442 6.10152 5.14906 0.0032867 0.00196645 0.00407508
29 2 9.61665 5.34915 4.58663 0.00171856 0.0415349 0.00715347
30 2 8.96269 6.33372 5.57169 0.0252557 0.00777904 0.0297263
31 1 3.46062 12.1819 5.74005 -0.00260476 -0.00673685 -0.00235906
32 2 12.2072 13.7783 5.98638 0.00260794 -0.0151401 -0.0230052
33 2 4.31811 12.4794 5.40479 0.0241615 0.0135669 -0.0268597
34 1 8.04248 5.35728 10.4363 -0.00151005 -0.00250918 0.000183407
35 2 7.07483 5.23612 10.338 0.000277621 -0.017687 0.0112206
36 2 8.45397 4.58149 10.1422 0.0259665 0.03028 -0.0154839
37 1 7.4214 10.9362 10.4943 0.00298139 0.00576122 -0.0066327
38 2 7.78677 11.5932 9.78462 0.0251543 -0.0255473 0.00467327
39 2 7.94853 10.0804 10.3973 0.0203958 0.0214969 -0.0112061
40 1 12.0393 4.71293 6.4546 -0.00702292 0.00209186 -0.000188294
41 2 5.96059 11.8811 3.95711 -0.0158698 0.0144223 -0.00843279
42 2 11.3606 5.24924 5.97662 0.00491924 0.0294879 -0.00210615
43 1 6.01756 12.7682 4.57586 0.00482166 0.00157474 0.00237815
44 2 11.2175 8.56037 4.06255 -0.0399346 -0.0016895 0.004788
45 2 7.79458 13.7883 3.61099 -0.0283317 -0.0225445 0.00275078
46 1 8.9479 12.7421 9.11637 -0.00437249 0.000445039 -0.000368831
47 2 8.65363 12.5977 8.19679 -0.00239323 0.00128003 0.0037929
48 2 9.8985 12.4713 9.08203 -0.034062 0.00241722 0.0110698
49 1 11.4224 7.52704 8.6975 0.00253855 0.00332951 0.000387832
50 2 11.1661 6.64174 8.51772 0.00769177 0.00110973 -0.00251869
51 2 12.1005 7.59973 9.3287 0.00345322 -0.0237748 0.0099408
52 1 9.12497 10.1596 5.85375 -0.0155019 -0.00470118 -0.00488081
53 2 10.048 9.95124 6.43086 0.00486645 -0.0122472 -0.0059728
54 2 8.92957 11.1278 5.78554 -0.0225753 0.0151393 0.00587081
55 1 5.62691 10.9256 2.68876 0.00110381 0.00116537 0.00101576
56 2 5.4799 9.92199 2.82884 -0.0244219 -0.0555841 0.0223658
57 2 6.37602 11.0354 11.9352 -0.00363843 0.00266455 0.0094989
58 1 5.36724 10.1815 9.12821 -0.000418467 -0.00215175 0.00137697
59 2 3.26243 12.3188 8.88081 0.015545 -0.0117841 -0.00319911
60 2 6.16679 10.5363 9.8272 -0.0175311 0.0373448 -0.00722507
61 1 7.50842 6.56209 7.24865 -0.00605686 -0.00162208 0.00411857
62 2 7.2466 6.22627 8.10996 0.0136063 -0.0171233 0.0159569
63 2 6.7497 6.13551 6.74626 -0.0147578 0.0206601 -0.0131413
64 1 4.21809 12.3683 8.3121 0.00669785 -0.00300218 -0.00580712
65 2 3.88498 12.2795 7.41446 -0.0127194 0.0259272 -0.0197077
66 2 4.06302 5.43394 6.86795 0.00596413 -0.00584873 -0.00152126
67 1 11.7792 11.5169 9.12601 0.00738638 0.0028808 0.00203609
68 2 11.7175 10.9611 8.27512 0.0335185 0.0157615 0.00753774
69 2 12.0412 10.8826 9.89758 -0.00142537 -0.0254465 -0.0127813
70 1 10.1976 12.4226 2.20646 -0.00103022 -0.00162006 0.00170716
71 2 9.47787 13.0439 2.58323 -0.0109733 -0.00419586 -0.00890763
72 2 9.86873 12.1263 11.2417 0.010017 0.0219354 -0.0181984
73 1 11.4695 9.89606 7.16952 0.00298485 0.00242374 0.00134296
74 2 11.4352 9.07253 7.62892 -0.0171445 0.00765612 0.00299769
75 2 12.1703 9.61749 5.98813 0.003466 -0.0194419 0.0180847
76 1 11.9707 4.72391 11.7333 -0.00366563 -0.00205648 -0.00383234
77 2 11.7986 4.99847 10.8365 0.0148065 0.0118155 -0.010231
78 2 3.71307 4.48593 2.81326 0.00363874 0.0106193 0.00865544
79 1 3.91644 6.74973 10.6559 0.0075245 0.00602512 -0.00125375
80 2 3.78568 6.07915 11.3474 -0.002723 0.0155963 -0.0172457
81 2 4.93456 11.1577 8.91283 0.0167469 -0.0339506 -0.0202076
82 1 5.51232 4.60418 9.51942 0.000475178 -0.00902897 0.00290896
83 2 4.87769 13.7536 9.25043 0.00886712 -0.0184378 -0.0107508
84 2 4.93931 5.28668 9.89925 0.00697134 -0.00167251 -0.0148276
85 1 10.8966 4.88092 8.7889 0.00718413 0.00192321 0.00525777
86 2 9.9704 4.66182 8.71009 0.0115035 -0.00704287 -0.039572
87 2 11.2842 4.10691 11.9348 -0.00685365 -0.00820316 -0.0184528
88 1 8.28504 12.8309 6.11341 -0.00442819 0.000950496 -0.000103402
89 2 7.54459 12.8146 5.49803 0.00213963 0.0199621 0.00055798
90 2 8.78996 13.7033 5.99901 0.0103746 0.0131173 0.00770399
91 1 5.02794 8.04452 5.5265 -0.00298962 -0.006669 0.0024157
92 2 3.68363 9.0845 5.18706 0.0287794 -0.00684689 -0.00641968
93 2 5.71619 8.53658 6.0785 0.0306701 0.0176993 -0.0445605
94 1 4.88168 5.74307 7.25883 -0.00224091 0.00226961 -0.00253264
95 2 5.10192 5.08735 7.95657 0.00990529 -0.0194167 -0.0291324
96 2 4.91422 7.29499 6.2046 -0.016594 -0.0113989 -0.00588986
ITEM: TIMESTEP
2
ITEM: NUMBER OF ATOMS
96
ITEM: BOX BOUNDS pp pp pp
2.9236100000000000e+00 1.2773600000000000e+01
4.0306300000000004e+00 1.3880599999999999e+01
2.1372399999999998e+00 1.1987200000000000e+01
ITEM: ATOMS id type x y z vx vy vz
1 1 8.49147 4.47907 3.30493 -0.00162975 -0.00931943 0.00434854
2 2 8.20409 4.77448 2.3976 0.0342968 0.0226071 -0.00106712
3 2 11.2775 4.52738 7.86993 0.0464462 0.010267 0.00576062
4 1 12.3976 9.46313 10.8108 -0.0010653 0.00356024 0.00434628
5 2 12.3577 9.69809 11.726 -0.00531044 0.00392646 -0.011105
6 2 3.50671 9.59169 10.5774 -0.0101452 -0.0128034 -0.0115578
7 1 11.0743 7.8041 3.45397 -0.004417 0.00882435 0.00432458
8 2 11.0462 7.01743 3.99866 -0.00300908 -0.0048462 0.00381475
9 2 7.28668 8.15448 7.13831 -0.0016384 -8.83256e-05 0.00906513
10 1 7.05965 9.14265 7.13677 0.000428059 -0.00285444 0.00080276
11 2 7.6986 9.68287 6.47656 0.0113807 0.00546231 -0.00714441
12 2 5.90904 9.89534 8.19886 -0.024662 -0.0108368 0.0133393
13 1 5.57152 8.25116 2.59569 -0.00208869 3.3768e-05 0.00322381
14 2 6.51955 8.1789 2.46643 -0.0313728 0.0127137 -0.0117684
15 2 5.40733 8.00438 3.53519 -0.00547446 0.0265624 -0.000530834
16 1 8.40459 7.53657 2.31828 -0.00320694 0.000484097 -0.00239408
17 2 9.3091 7.84961 2.5676 -0.00862359 -0.0332477 -0.0149515
18 2 8.52697 6.63065 11.8925 -0.0275492 -0.00833588 0.00753277
19 1 4.71432 4.53293 2.75817 0.00952826 0.00382683 -0.00109241
20 2 4.9471 4.12625 11.7186 0.0128115 0.0251335 -0.0181912
21 2 4.35194 7.43914 11.1427 4.24798e-05 0.0167588 -0.00657315
22 1 9.25582 8.8614 9.89838 -0.00214715 -0.00438631 0.00149746
23 2 8.87894 8.40898 10.6764 0.00353795 -0.00784825 0.00330563
24 2 10.1121 8.43974 9.78318 0.00107168 0.00388482 0.0162695
25 1 12.674 9.51712 5.01393 0.00384514 0.00338595 -0.000414752
26 2 3.31013 11.2613 5.45849 0.00938707 -0.00761002 -0.00742138
27 2 5.56282 13.4288 4.08346 -0.0202552 0.00941039 0.00231581
28 1 9.81608 6.1025 5.15117 0.00338416 0.00202751 0.00438269
29 2 9.61701 5.3699 4.58985 -0.000671921 0.0403318 0.00492269
30 2 8.97588 6.33744 5.5864 0.0270417 0.00713629 0.0292246
31 1 3.45928 12.1786 5.73888 -0.00267985 -0.00651006 -0.0023309
32 2 12.2086 13.7691 5.97381 0.00258079 -0.0205704 -0.0265689
33 2 4.33086 12.4859 5.39084 0.0255594 0.0117575 -0.0283693
34 1 8.04169 5.35613 10.4365 -0.00166063 -0.00206551 0.0005104
35 2 7.07544 5.227 10.3433 0.00207663 -0.018943 0.0100105
36 2 8.46737 4.59504 10.1336 0.0276189 0.0236874 -0.0191627
37 1 7.42304 10.9392 10.491 0.00358242 0.00595725 -0.00657666
38 2 7.79979 11.58 9.78757 0.0268067 -0.0267505 0.00670554
39 2 7.9589 10.0917 10.3912 0.0208848 0.0233071 -0.0127592
40 1 12.0358 4.71413 6.45454 -0.00699736 0.00264458 -0.000101267
41 2 5.95274 11.8898 3.95393 -0.0154058 0.0198591 -0.0044651
42 2 11.3631 5.26355 5.97531 0.00535238 0.0274036 -0.00301497
43 1 6.02 12.7688 4.57703 0.00489095 0.000833661 0.00228943
44 2 11.198 8.55891 4.06469 -0.0380521 -0.00379348 0.00407136
45 2 7.77939 13.7765 3.61295 -0.0315401 -0.0240616 0.00436508
46 1 8.94574 12.7422 9.11616 -0.00435109 0.000348234 -0.00045842
47 2 8.65268 12.5986 8.19887 -0.00150143 0.00206812 0.00429385
48 2 9.88069 12.4725 9.08762 -0.0360488 0.0023131 0.0111863
49 1 11.4236 7.5289 8.69761 0.00229092 0.0040825 6.409e-05
50 2 11.1699 6.63981 8.51668 0.00746296 -0.0085585 -0.00170143
51 2 12.1037 7.58722 9.33508 0.0087492 -0.0261748 0.0152522
52 1 9.1173 10.1572 5.85135 -0.0151413 -0.00477453 -0.00470652
53 2 10.0492 9.94649 6.42723 -0.000661702 -0.00658019 -0.00867681
54 2 8.91914 11.1348 5.7892 -0.0189514 0.0125541 0.00879865
55 1 5.6274 10.9262 2.68932 0.000837577 0.00103828 0.00125635
56 2 5.46805 9.89452 2.83974 -0.0224246 -0.05237 0.0206409
57 2 6.37426 11.0366 11.9401 -0.00341583 0.00160544 0.0100106
58 1 5.36701 10.1802 9.12879 -0.000491065 -0.00272484 0.000946357
59 2 3.27117 12.3123 8.87879 0.0194824 -0.0140215 -0.00481837
60 2 6.15796 10.5543 9.82328 -0.0173872 0.034624 -0.00828641
61 1 7.50534 6.56112 7.25065 -0.00625477 -0.00226785 0.00388926
62 2 7.25387 6.21815 8.11863 0.0153903 -0.0152819 0.0181623
63 2 6.74313 6.14679 6.73987 -0.0114563 0.0244192 -0.0120403
64 1 4.2213 12.3669 8.30935 0.00612489 -0.00261444 -0.00524261
65 2 3.87871 12.2919 7.40253 -0.0121416 0.024108 -0.0273041
66 2 4.06541 5.43083 6.86709 0.00343306 -0.00654401 -0.00206392
67 1 11.7829 11.5184 9.12719 0.00753811 0.00321262 0.00265538
68 2 11.7344 10.9685 8.27859 0.034093 0.0136126 0.00591498
69 2 12.0401 10.8699 9.8902 -0.00318989 -0.0253348 -0.0164743
70 1 10.1971 12.4219 2.20743 -0.00119146 -0.00131546 0.00214108
71 2 9.47339 13.041 2.57837 -0.00697386 -0.00741624 -0.0103648
72 2 9.87315 12.1369 11.2313 0.00790065 0.0207813 -0.0229567
73 1 11.4709 9.89724 7.1701 0.00243528 0.00230002 0.000985562
74 2 11.4267 9.07605 7.63057 -0.0168348 0.00631784 0.00366864
75 2 12.1724 9.60774 5.9969 0.00496572 -0.019518 0.0167294
76 1 11.9689 4.72293 11.7314 -0.00337879 -0.00183938 -0.00375696
77 2 11.8058 5.00452 10.8307 0.0140613 0.0121784 -0.0127581
78 2 3.71608 4.49121 2.81707 0.00860945 0.0104678 0.00637627
79 1 3.92018 6.75268 10.6552 0.00746529 0.00578084 -0.00132832
80 2 3.78399 6.08688 11.3385 -0.00406278 0.0149155 -0.017975
81 2 4.94265 11.1406 8.90189 0.0150871 -0.0335989 -0.0237025
82 1 5.51256 4.59964 9.52092 0.000464594 -0.0091334 0.00309143
83 2 4.88239 13.7439 9.24515 0.00988921 -0.0203255 -0.0103359
84 2 4.9426 5.28669 9.89216 0.00602349 0.00163538 -0.0135606
85 1 10.9002 4.88183 8.79144 0.00723548 0.0017438 0.0048808
86 2 9.97558 4.65833 8.69115 0.00935999 -0.00687453 -0.0361579
87 2 11.2798 4.10164 11.9258 -0.0104674 -0.0127046 -0.0174652
88 1 8.28296 12.8315 6.11343 -0.00387764 0.00116292 0.000155515
89 2 7.5453 12.8252 5.49792 0.000634909 0.0221306 -0.0010935
90 2 8.7938 13.7083 6.00255 0.00486537 0.00652967 0.00653969
91 1 5.02654 8.04112 5.52789 -0.00259902 -0.00688287 0.00309648
92 2 3.69802 9.08071 5.18406 0.0278322 -0.00785902 -0.00565108
93 2 5.73112 8.54626 6.05478 0.0287383 0.0202832 -0.0499067
94 1 4.88056 5.74425 7.25749 -0.00224415 0.0024436 -0.0028178
95 2 5.10715 5.07747 7.94214 0.0110899 -0.0200587 -0.0284727
96 2 4.90494 7.2895 6.19995 -0.020088 -0.01022 -0.0122867
ITEM: TIMESTEP
3
ITEM: NUMBER OF ATOMS
96
ITEM: BOX BOUNDS pp pp pp
2.9236100000000000e+00 1.2773600000000000e+01
4.0306300000000004e+00 1.3880599999999999e+01
2.1372399999999998e+00 1.1987200000000000e+01
ITEM: ATOMS id type x y z vx vy vz
1 1 8.49067 4.4744 3.30702 -0.00162346 -0.00938228 0.00404174
2 2 8.22133 4.78571 2.39774 0.034454 0.0220094 0.00193018
3 2 11.3009 4.53314 7.8745 0.0468158 0.0127429 0.012623
4 1 12.3971 9.46496 10.8129 -0.000783509 0.00374695 0.0040049
5 2 12.3552 9.70004 11.7208 -0.00456634 0.00408016 -0.00909088
6 2 3.5005 9.58495 10.5722 -0.0142878 -0.0140331 -0.00924086
7 1 11.0721 7.80857 3.4561 -0.00447613 0.0090143 0.00418143
8 2 11.0443 7.01487 4.00102 -0.00428955 -0.00493741 0.00535207
9 2 7.28638 8.15504 7.14283 0.000491707 0.0023424 0.00899752
10 1 7.0598 9.14136 7.13713 0.00017795 -0.00230334 0.000617391
11 2 7.70431 9.68413 6.47413 0.0112683 -0.00060666 -0.00242109
12 2 5.89656 9.89033 8.20717 -0.0247589 -0.00946364 0.0194517
13 1 5.57042 8.25122 2.59734 -0.00237661 0.000230083 0.00334602
14 2 6.50451 8.18485 2.46072 -0.0275448 0.0110039 -0.0110907
15 2 5.40486 8.01766 3.53471 -0.00431536 0.026263 -0.000831799
16 1 8.40302 7.5369 2.3171 -0.00311612 0.000787378 -0.00233202
17 2 9.3045 7.83242 2.56048 -0.00915002 -0.0351117 -0.0132919
18 2 8.51315 6.62595 11.896 -0.0278072 -0.0104055 0.00640191
19 1 4.71905 4.5348 2.75756 0.00940013 0.00364609 -0.00133627
20 2 4.95284 4.13963 11.7111 0.0100149 0.0283863 -0.0118921
21 2 4.35238 7.44833 11.1396 0.00156069 0.0197309 -0.00590426
22 1 9.25472 8.85923 9.89915 -0.00226229 -0.00429919 0.00157754
23 2 8.88017 8.40475 10.6784 0.00125272 -0.00900837 0.00456662
24 2 10.1134 8.44171 9.7906 0.00414962 0.00400092 0.0133221
25 1 12.676 9.51883 5.01372 0.00394312 0.00345807 -0.00039786
26 2 3.31484 11.2567 5.45438 0.00943694 -0.010695 -0.00894265
27 2 5.55191 13.4351 4.08358 -0.0229602 0.0151271 -0.00134372
28 1 9.81781 6.10354 5.15344 0.00358431 0.00221442 0.00477381
29 2 9.61598 5.38949 4.59155 -0.00382477 0.0370043 0.00114568
30 2 8.98973 6.34085 5.60091 0.0279332 0.00657327 0.0289915
31 1 3.45794 12.1754 5.73771 -0.00258906 -0.00621929 -0.00236924
32 2 12.2098 13.7577 5.95981 0.00190632 -0.0234346 -0.028671
33 2 4.34367 12.4912 5.37642 0.0244541 0.00902447 -0.0287706
34 1 8.04082 5.35521 10.4368 -0.00179587 -0.00160232 0.000864572
35 2 7.07691 5.21718 10.348 0.00370652 -0.0204762 0.00861825
36 2 8.48159 4.60518 10.1231 0.0291311 0.0169695 -0.0229561
37 1 7.42498 10.9422 10.4877 0.00416748 0.00610378 -0.00649339
38 2 7.81358 11.5665 9.79132 0.0281777 -0.026343 0.00782227
39 2 7.96942 10.1037 10.3845 0.0210411 0.0240184 -0.0137362
40 1 12.0323 4.71558 6.4545 -0.00694329 0.00306784 -0.000132793
41 2 5.94519 11.901 3.95265 -0.0146821 0.0241788 -0.000884779
42 2 11.366 5.27664 5.97361 0.00617287 0.0246464 -0.00366837
43 1 6.02246 12.769 4.57815 0.00487551 0.000199001 0.002156
44 2 11.1794 8.55657 4.06662 -0.0360012 -0.0051736 0.00394989
45 2 7.76304 13.7643 3.61536 -0.0329343 -0.0238643 0.0045518
46 1 8.94355 12.7424 9.11591 -0.00444745 0.00031522 -0.00051184
47 2 8.65213 12.5998 8.20108 -0.000763978 0.00273868 0.00425608
48 2 9.86245 12.4736 9.09322 -0.035641 0.00155678 0.0111094
49 1 11.4247 7.53112 8.69756 0.00209464 0.00475748 -0.000203278
50 2 11.1736 6.63318 8.51602 0.00723026 -0.0173147 -0.000911321
51 2 12.1093 7.57356 9.34396 0.013189 -0.0283359 0.0196868
52 1 9.10983 10.1548 5.84904 -0.0147233 -0.00477451 -0.00451128
53 2 10.0474 9.94466 6.42218 -0.00673735 -0.000682595 -0.0115743
54 2 8.91062 11.1403 5.79434 -0.015091 0.00882832 0.0117194
55 1 5.62775 10.9266 2.69001 0.000516305 0.000693381 0.00155686
56 2 5.45748 9.86962 2.84948 -0.0193482 -0.0455302 0.0177881
57 2 6.3726 11.037 11.9452 -0.00322905 1.4342e-05 0.0105093
58 1 5.36674 10.1787 9.12916 -0.000593549 -0.00331345 0.000573142
59 2 3.28191 12.3048 8.876 0.0234169 -0.0160124 -0.00626539
60 2 6.1494 10.5709 9.81891 -0.0164328 0.0316956 -0.00905727
61 1 7.50217 6.55982 7.25254 -0.00644431 -0.00291253 0.00369137
62 2 7.26199 6.21098 8.12812 0.0170255 -0.0133093 0.0192209
63 2 6.73824 6.15993 6.73422 -0.00822235 0.0279749 -0.0102473
64 1 4.22422 12.3657 8.30686 0.0055503 -0.00225825 -0.00478903
65 2 3.87284 12.3036 7.38715 -0.0110695 0.0225603 -0.0333318
66 2 4.06645 5.42739 6.86588 0.000645692 -0.00715535 -0.00284262
67 1 11.7867 11.5201 9.12867 0.00767478 0.00349886 0.00327498
68 2 11.7516 10.9747 8.28104 0.034425 0.0115149 0.00349376
69 2 12.0381 10.8573 9.8811 -0.00484098 -0.0247508 -0.0195672
70 1 10.1964 12.4213 2.2086 -0.0013718 -0.00103264 0.00249902
71 2 9.4709 13.0365 2.57287 -0.0031485 -0.0103514 -0.0114288
72 2 9.87663 12.1471 11.2187 0.00632338 0.0198555 -0.0268799
73 1 11.472 9.89836 7.1705 0.00186052 0.00217973 0.000607276
74 2 11.4183 9.07885 7.63259 -0.0164354 0.00485857 0.00442439
75 2 12.1753 9.59797 6.00486 0.00670754 -0.0194596 0.014863
76 1 11.9673 4.72207 11.7295 -0.0031258 -0.00163787 -0.00370849
77 2 11.8126 5.01065 10.8238 0.0133076 0.0121322 -0.0144132
78 2 3.72168 4.4964 2.81963 0.013733 0.0102381 0.00376609
79 1 3.9239 6.75551 10.6546 0.00740969 0.00559851 -0.0014859
80 2 3.78162 6.09407 11.3294 -0.00540809 0.0135359 -0.0175809
81 2 4.94964 11.1241 8.88913 0.0123749 -0.0319683 -0.0274751
82 1 5.51279 4.59505 9.52251 0.000466414 -0.00924931 0.00324854
83 2 4.88758 13.7333 9.2401 0.0108846 -0.0217038 -0.00981059
84 2 4.94534 5.28832 9.88569 0.00481985 0.00469572 -0.0124434
85 1 10.9038 4.88266 8.79378 0.00727956 0.00156223 0.00448488
86 2 9.97976 4.65494 8.67393 0.0076031 -0.00660781 -0.0327061
87 2 11.2738 4.0942 11.9173 -0.0134962 -0.0166814 -0.0168366
88 1 8.28117 12.8321 6.11357 -0.00329962 0.0014034 0.000416932
89 2 7.54522 12.8368 5.49694 -0.000957928 0.0241517 -0.00280836
90 2 8.79482 13.7098 6.00555 -0.000774288 -0.000490569 0.00547373
91 1 5.02534 8.03763 5.52959 -0.00221463 -0.00703017 0.00367491
92 2 3.71146 9.07664 5.1814 0.0250626 -0.00802831 -0.00506706
93 2 5.74493 8.55686 6.0286 0.026183 0.0213491 -0.0542554
94 1 4.87944 5.74551 7.25601 -0.00223222 0.0025978 -0.00308074
95 2 5.11301 5.0673 7.9281 0.0124267 -0.0205302 -0.0276389
96 2 4.89413 7.28477 6.19232 -0.0226063 -0.00840734 -0.0176571
ITEM: TIMESTEP
4
ITEM: NUMBER OF ATOMS
96
ITEM: BOX BOUNDS pp pp pp
2.9236100000000000e+00 1.2773600000000000e+01
4.0306300000000004e+00 1.3880599999999999e+01
2.1372399999999998e+00 1.1987200000000000e+01
ITEM: ATOMS id type x y z vx vy vz
1 1 8.48985 4.46968 3.30897 -0.00170794 -0.00950945 0.00377886
2 2 8.23855 4.79649 2.39953 0.0341647 0.0208184 0.00538992
3 2 11.3243 4.54012 7.88255 0.046864 0.0150636 0.0195183
4 1 12.3968 9.46687 10.8148 -0.000573588 0.00388306 0.00359561
5 2 12.3531 9.70217 11.7169 -0.00363694 0.00460053 -0.00597831
6 2 3.49243 9.57765 10.5682 -0.0174358 -0.0150192 -0.00686473
7 1 11.0699 7.81311 3.45815 -0.00454249 0.00909747 0.00403463
8 2 11.0419 7.01249 4.00401 -0.00549342 -0.00416489 0.00630608
9 2 7.28717 8.15683 7.14731 0.00268036 0.004718 0.00891808
10 1 7.05983 9.14035 7.13739 -8.67209e-05 -0.00175704 0.000408996
11 2 7.70987 9.68226 6.47414 0.0108266 -0.00687716 0.00253455
12 2 5.88428 9.88588 8.21832 -0.0238461 -0.00865514 0.0246151
13 1 5.56914 8.25139 2.59904 -0.00281535 0.000495254 0.00341937
14 2 6.49201 8.1899 2.45534 -0.021458 0.0091171 -0.0104795
15 2 5.40301 8.03065 3.53436 -0.00305521 0.0254103 -6.14165e-05
16 1 8.40148 7.53736 2.31595 -0.00309521 0.00102851 -0.00229713
17 2 9.29995 7.81449 2.55431 -0.00839891 -0.0362539 -0.0111721
18 2 8.49916 6.62025 11.8989 -0.0282493 -0.0121804 0.0052858
19 1 4.72372 4.53658 2.75684 0.009298 0.00347286 -0.00156161
20 2 4.95712 4.15464 11.7067 0.0071205 0.0315016 -0.0056149
21 2 4.3535 7.45887 11.1368 0.00274775 0.0220353 -0.00528773
22 1 9.25356 8.8571 9.89996 -0.002364 -0.00423076 0.00166985
23 2 8.8802 8.39998 10.681 -0.00115431 -0.00996745 0.0056321
24 2 10.1163 8.44374 9.7965 0.00725221 0.00421355 0.0102189
25 1 12.678 9.52057 5.01353 0.00413697 0.00348824 -0.00032481
26 2 3.31957 11.2506 5.44954 0.00941429 -0.0135675 -0.0102886
27 2 5.53986 13.444 4.08211 -0.0246882 0.0198612 -0.0039705
28 1 9.81966 6.10471 5.15594 0.00388041 0.00249901 0.00522879
29 2 9.61318 5.40691 4.591 -0.0076548 0.0319746 -0.00392763
30 2 9.00381 6.34401 5.61539 0.0279383 0.00611382 0.0290633
31 1 3.45669 12.1723 5.73651 -0.00234881 -0.00588628 -0.00247298
32 2 12.2105 13.7456 5.94514 0.000599131 -0.0236219 -0.0291729
33 2 4.35532 12.4949 5.36207 0.0211171 0.00549025 -0.0281157
34 1 8.03989 5.35453 10.4373 -0.00189149 -0.00116377 0.00122551
35 2 7.07914 5.20653 10.3519 0.00513757 -0.0222499 0.00705657
36 2 8.4965 4.61201 10.1107 0.0301535 0.0107977 -0.0265655
37 1 7.42721 10.9453 10.4845 0.00472993 0.00619722 -0.00638671
38 2 7.82797 11.5536 9.7954 0.0292352 -0.0242484 0.00798575
39 2 7.97994 10.1157 10.3775 0.0208705 0.0235387 -0.0140591
40 1 12.0288 4.7172 6.45441 -0.00685605 0.00335016 -0.000291489
41 2 5.93806 11.914 3.95304 -0.01372 0.0272226 0.00218
42 2 11.3693 5.28819 5.97165 0.00730779 0.0212969 -0.00406511
43 1 6.02488 12.769 4.57918 0.00475866 -0.000288787 0.00197246
44 2 11.162 8.55374 4.06864 -0.0338231 -0.00576222 0.00443811
45 2 7.74645 13.7526 3.6175 -0.0325024 -0.0219936 0.00338963
46 1 8.94129 12.7426 9.11565 -0.00466376 0.000351163 -0.000528771
47 2 8.65191 12.6013 8.20313 -0.000211265 0.00328694 0.00363838
48 2 9.84505 12.4741 9.09873 -0.0327538 0.000114974 0.0108723
49 1 11.4257 7.53366 8.6974 0.00196621 0.00530498 -0.000392429
50 2 11.1771 6.6225 8.51577 0.00713587 -0.0244748 -2.14712e-05
51 2 12.1168 7.55888 9.35477 0.0163228 -0.0301948 0.0228041
52 1 9.10257 10.1524 5.84684 -0.0142529 -0.00471017 -0.00431145
53 2 10.0424 9.94581 6.41565 -0.0130984 0.00520638 -0.0145061
54 2 8.90405 11.1437 5.80092 -0.0111719 0.00432996 0.0145271
55 1 5.62792 10.9269 2.69087 0.000145937 0.000162847 0.00190772
56 2 5.4487 9.84899 2.85752 -0.0153646 -0.0356559 0.0139548
57 2 6.37103 11.0366 11.9506 -0.00301088 -0.00197923 0.0109226
58 1 5.36642 10.1769 9.12936 -0.000726647 -0.00390859 0.000269937
59 2 3.29459 12.2963 8.87253 0.0271531 -0.0177102 -0.00749658
60 2 6.14153 10.586 9.81423 -0.0147058 0.0286481 -0.00953214
61 1 7.4989 6.55821 7.25434 -0.00660246 -0.00353756 0.00353267
62 2 7.27089 6.20484 8.13785 0.0184165 -0.0112485 0.019123
63 2 6.73491 6.17476 6.72962 -0.00532996 0.0311333 -0.00787436
64 1 4.22685 12.3646 8.30456 0.00498866 -0.00193099 -0.00447241
65 2 3.86764 12.3145 7.3692 -0.00947531 0.0212203 -0.0374855
66 2 4.06606 5.42368 6.86425 -0.00216359 -0.00761464 -0.00371437
67 1 11.7906 11.5219 9.13046 0.00778965 0.0037306 0.00387613
68 2 11.7688 10.98 8.28208 0.0344927 0.00954496 0.000327234
69 2 12.0352 10.8451 9.87063 -0.00635884 -0.0237315 -0.021918
70 1 10.1957 12.4208 2.20993 -0.00155835 -0.000788241 0.00274952
71 2 9.47024 13.0307 2.56694 0.000242201 -0.0128286 -0.0120024
72 2 9.87947 12.1568 11.2044 0.00539154 0.0192522 -0.0295929
73 1 11.4727 9.89942 7.17071 0.00127587 0.00205936 0.000226414
74 2 11.4102 9.0809 7.63499 -0.0159703 0.00341302 0.00523426
75 2 12.1791 9.58828 6.01177 0.00858173 -0.0192162 0.0125633
76 1 11.9658 4.7213 11.7277 -0.00293147 -0.00146762 -0.00369481
77 2 11.8191 5.01665 10.8163 0.0125503 0.0116009 -0.0150125
78 2 3.72981 4.50145 2.82083 0.0184944 0.00993826 0.000969721
79 1 3.92759 6.75827 10.6538 0.00736677 0.00548709 -0.00171411
80 2 3.77858 6.10041 11.3209 -0.00674856 0.0115863 -0.016133
81 2 4.95502 11.1087 8.87442 0.00865359 -0.0290912 -0.0314621