ITEM: TIMESTEP
0
ITEM: NUMBER OF ATOMS
96
ITEM: BOX BOUNDS pp pp pp
2.9236100000000000e+00 1.2773600000000000e+01
4.0306300000000004e+00 1.3880599999999999e+01
2.1372399999999998e+00 1.1987200000000000e+01
ITEM: ATOMS id type x y z vx vy vz
1 1 8.57608 12.1906 4.35124 -0.000191932 0.00275633 -0.00331996
2 2 7.86222 11.6624 4.01027 0.0293494 -0.0235763 -0.0031455
3 2 9.98392 13.3413 2.35217 -0.0133839 -0.0138208 -0.0076943
4 1 3.27725 12.1067 11.8169 0.00175711 -0.00651534 0.00564743
5 2 12.7056 11.5052 11.1991 -0.0161312 -0.0385672 0.0237512
6 2 12.5532 12.0943 2.77066 -0.0193697 -0.029639 0.026528
7 1 12.7623 7.37188 2.88612 -0.00481448 -0.00267372 0.00327346
8 2 11.9725 7.1015 3.44134 -0.0185702 -0.00952245 0.0044772
9 2 8.26413 8.06721 6.37502 -0.00948871 -7.63334e-05 0.0179825
10 1 7.56552 8.7761 6.2129 0.00288056 0.00823507 -0.000319293
11 2 6.72173 8.37091 5.93521 0.0121824 0.0252433 0.00883752
12 2 7.14121 9.02544 7.78241 0.0206766 0.0165003 0.0273215
13 1 6.12749 8.27837 2.45476 -0.00401882 0.00205974 8.11609e-05
14 2 5.70788 8.23996 11.4779 0.0112349 0.00824604 0.0251678
15 2 5.89427 7.46533 2.92685 0.016086 -0.0104648 0.0152805
16 1 8.93623 7.44712 2.45128 -0.00301348 0.00101039 0.000815731
17 2 9.03284 6.5099 2.351 -0.0041751 0.0012385 -0.000762163
18 2 7.99198 7.55968 2.74109 -0.00394556 0.0020965 0.0196997
19 1 3.72195 7.38869 10.0932 0.010374 0.00360286 0.00102115
20 2 3.20602 7.08117 10.8592 -0.000911754 0.00296004 -0.00184306
21 2 11.3853 9.92594 10.2599 0.0113025 -0.00225395 -0.0248842
22 1 9.90329 9.82043 11.49 0.00155766 -0.00378331 0.00478013
23 2 10.0015 10.4093 2.38505 -0.00952165 0.00231366 -0.0274196
24 2 9.39519 9.01822 11.8498 -0.00541345 0.00604598 0.0026401
25 1 12.6756 9.67042 5.1617 -0.00391805 -0.00242528 -0.00198558
26 2 3.45356 10.3699 5.37973 -0.00597387 -0.00293734 -0.00962298
27 2 4.2797 6.32428 3.42143 -0.00543323 -0.0211021 0.0205534
28 1 11.2375 5.64694 4.32759 -0.0028293 0.00037291 -0.00366986
29 2 11.8719 5.04739 4.83062 0.0186202 -0.000513643 -0.0221111
30 2 10.5922 5.91811 4.98383 0.0132727 -0.0224419 0.017121
31 1 4.53073 11.6605 5.36658 -0.00729925 -0.000167297 -0.00982908
32 2 3.71481 13.3227 5.55783 0.000905828 0.00766966 0.00939799
33 2 5.17973 11.3109 4.78589 -0.00878644 -0.0050741 -0.0129436
34 1 4.76355 13.3402 9.80948 -0.000157702 -0.00431948 0.001332
35 2 4.08012 12.9011 10.5082 0.0047368 -0.0210779 0.0168562
36 2 5.21155 4.21022 10.264 0.0202892 0.0177934 -0.00480384
37 1 8.16873 11.054 9.72381 -0.00313726 0.00528706 -0.000993973
38 2 8.74646 11.3258 8.91941 0.00572418 -0.00484611 0.00367625
39 2 8.75961 10.6567 10.4594 -0.0129259 0.0178793 -0.0165905
40 1 3.32628 4.37023 5.71142 0.0095877 0.00152216 0.00389203
41 2 4.75097 5.27122 4.50665 -0.0187229 0.0203947 0.0225362
42 2 12.6351 4.31735 6.53734 0.00173773 -0.0184077 0.00437176
43 1 5.05982 5.87054 3.83415 -0.00340556 0.00383843 0.000937298
44 2 3.08612 8.28302 3.20041 -0.0222275 0.0186359 0.00312181
45 2 8.25303 12.5889 5.16618 -0.00738451 -0.00032271 0.0114026
46 1 9.66762 11.5525 7.398 0.00460916 -0.000940962 -0.0088428
47 2 9.0159 11.8298 6.72848 -0.0103239 -0.0316689 -0.0152805
48 2 10.1293 10.5089 6.92433 0.00484997 -0.0150257 0.0108861
49 1 9.23467 7.14929 9.39808 -0.00424415 0.00442512 -0.000473687
50 2 8.54835 6.55467 9.15632 0.00168381 0.0155217 -0.0139238
51 2 9.2002 7.21465 10.3729 -0.023211 -0.00769158 0.0141058
52 1 10.9012 11.3993 3.53774 -0.000671907 -0.00176719 0.00608731
53 2 10.2966 12.0078 3.99245 -0.00575993 0.0114369 0.00183938
54 2 11.2653 10.8348 4.29042 -0.00662253 -0.00695143 -0.000409517
55 1 6.11603 11.2535 3.23225 0.0118351 -0.000879174 0.0115994
56 2 6.20881 10.2771 2.96072 0.00243966 -0.0141117 0.0127885
57 2 5.23024 11.5345 2.9659 0.00485857 -0.0137962 -0.0104115
58 1 6.62915 9.27186 8.60482 0.000648005 0.00125341 -0.000642486
59 2 5.12766 12.088 8.70583 -0.0227387 0.0192657 0.00222382
60 2 7.23965 9.84793 9.16968 -0.0287391 -0.00956947 0.0146924
61 1 7.17761 5.6392 8.50381 7.95353e-05 -0.00214854 -0.00516916
62 2 6.91973 5.3551 9.38281 0.0210369 -0.00202666 -0.00046809
63 2 6.34054 6.01258 8.18854 -0.0357437 -0.00796398 0.0200738
64 1 5.04668 11.3473 8.01654 0.00017788 0.00527374 0.0013928
65 2 4.86154 11.4712 6.30216 -0.00212788 0.0150247 -0.0258354
66 2 4.53282 5.1767 6.83971 0.00957336 -0.00247164 -0.0068822
67 1 10.874 9.38409 6.96896 0.00149889 -0.00335516 -0.00945254
68 2 11.7366 9.64611 6.45322 -0.00580005 -0.0173522 0.0263302
69 2 11.2083 9.50256 7.94598 -0.0190928 -0.0097908 -0.0267185
70 1 11.1954 13.8046 7.52976 -0.00410507 0.000234603 -0.000605415
71 2 10.6571 12.9271 7.48061 -0.0185766 0.00517905 0.0157757
72 2 11.2637 4.27319 8.50402 0.00488608 0.0338333 0.0068384
73 1 9.02518 6.60873 6.43246 0.00526332 0.00224685 0.0019454
74 2 8.39529 6.16441 6.99549 7.04252e-05 -0.00401138 0.011077
75 2 9.51133 7.07675 7.12727 0.0244682 0.0141289 0.00633612
76 1 11.5229 5.17769 9.90078 -0.000539586 0.000381123 -0.00684115
77 2 11.2368 6.05157 9.68397 -0.0368858 0.0167972 0.00276293
78 2 3.55191 6.71033 9.41505 -0.00373516 0.000881245 0.00128664
79 1 12.0008 9.74357 9.49706 -0.00610799 0.00116364 0.00119927
80 2 12.4565 8.87762 9.61787 -0.00763719 0.0244865 0.00911382
81 2 5.69767 10.5954 8.32591 -0.0368375 -0.012609 0.0103402
82 1 6.60185 4.76211 11.4778 -0.00206519 -0.0031214 5.98426e-05
83 2 7.53324 4.73372 11.7137 -0.0202186 0.000407815 -0.0164703
84 2 6.15679 4.987 2.50021 -0.00094661 -0.0100856 0.0159959
85 1 9.89413 4.41614 2.22341 0.00818251 -0.000579485 -0.00174701
86 2 10.4298 4.8841 2.8551 -0.0065355 -0.0189464 -0.00173744
87 2 10.8607 4.84977 10.609 0.0207358 0.0161767 0.0167768
88 1 7.20839 13.3608 6.62283 -0.00180613 -0.00372817 -0.000284838
89 2 6.27487 13.0256 6.5483 0.0037028 0.01197 -0.00391193
90 2 7.17943 13.7895 7.46012 0.0122529 -0.000395237 0.00025173
91 1 4.99015 7.81111 5.77414 0.000929233 0.0031306 0.00103113
92 2 3.36976 8.87047 5.23287 0.0217269 0.00612162 0.00794361
93 2 4.79105 7.21663 6.58205 0.00685264 0.000696293 -0.00868567
94 1 4.47775 5.75175 7.65321 0.00444963 -0.00376389 -0.00510936
95 2 4.56837 5.04099 8.30901 -0.0183061 -0.0188825 -0.0102338
96 2 5.12503 7.17432 5.02619 0.00434497 -0.0161148 0.00986691
ITEM: TIMESTEP
1
ITEM: NUMBER OF ATOMS
96
ITEM: BOX BOUNDS pp pp pp
2.9236100000000000e+00 1.2773600000000000e+01
4.0306300000000004e+00 1.3880599999999999e+01
2.1372399999999998e+00 1.1987200000000000e+01
ITEM: ATOMS id type x y z vx vy vz
1 1 8.57602 12.192 4.34961 -2.22447e-05 0.00287055 -0.00318345
2 2 7.87609 11.6504 4.00832 0.0259185 -0.0246331 -0.00457748
3 2 9.97766 13.3334 2.34911 -0.0117127 -0.017154 -0.00459727
4 1 3.27815 12.1035 11.8197 0.00177273 -0.0065066 0.00575645
5 2 12.6972 11.4857 11.2112 -0.0167981 -0.0389492 0.0250263
6 2 12.5435 12.0792 2.78307 -0.0186599 -0.0306672 0.0224426
7 1 12.7599 7.37059 2.88782 -0.00501011 -0.00247165 0.0035361
8 2 11.9641 7.09648 3.44298 -0.0146574 -0.0104584 0.00185238
9 2 8.25894 8.06699 6.38339 -0.0110973 -0.00094828 0.0155694
10 1 7.56696 8.7803 6.21273 0.00292539 0.00859341 -0.000355086
11 2 6.7273 8.38297 5.93958 0.00960772 0.0228019 0.00848759
12 2 7.15181 9.03378 7.79533 0.0218981 0.0167182 0.0238872
13 1 6.12555 8.27944 2.45489 -0.00368926 0.00219476 0.000539473
14 2 5.71266 8.24353 11.4895 0.00730277 0.00588081 0.0203212
15 2 5.90201 7.46037 2.9339 0.0148925 -0.00906604 0.0126398
16 1 8.93465 7.44763 2.45172 -0.00331089 0.00102307 0.000956486
17 2 9.0309 6.50972 2.35078 -0.00361426 -0.00187407 -7.55358e-05
18 2 7.99073 7.56075 2.75045 -0.000870335 0.00211716 0.0176674
19 1 3.7271 7.39048 10.0937 0.0102094 0.00354491 0.000905972
20 2 3.20587 7.08281 10.8582 0.000443783 0.0037033 -0.00206218
21 2 11.3916 9.92375 10.2467 0.0129621 -0.00619073 -0.026818
22 1 9.90401 9.81849 11.4923 0.0013355 -0.00401158 0.00437479
23 2 9.99725 10.4116 2.37264 -0.00747021 0.00738858 -0.0216865
24 2 9.39297 9.02169 11.8506 -0.00354115 0.00770741 0.000863545
25 1 12.6736 9.66912 5.16061 -0.00410528 -0.00281336 -0.00234073
26 2 3.45148 10.3703 5.37531 -0.00256572 0.00463485 -0.00809709
27 2 4.27642 6.31342 3.43195 -0.00805182 -0.0218445 0.0210545
28 1 11.2361 5.64712 4.32577 -0.00279846 0.000325795 -0.00361812
29 2 11.881 5.04752 4.8191 0.0175659 0.00112635 -0.0240471
30 2 10.5984 5.90711 4.99265 0.0114592 -0.0214871 0.0181918
31 1 4.52702 11.6605 5.36178 -0.00753378 0.000165451 -0.00941918
32 2 3.71491 13.3265 5.56262 -0.000263348 0.00740486 0.0095431
33 2 5.17698 11.3077 4.77792 -0.00236136 -0.00757171 -0.0188478
34 1 4.76332 13.338 9.81022 -0.000729824 -0.0045273 0.00166358
35 2 4.08476 12.8921 10.515 0.0139569 -0.0147395 0.0102555
36 2 5.22201 4.21877 10.2623 0.0210214 0.0156083 -0.00231138
37 1 8.16724 11.0567 9.72332 -0.00282823 0.00547997 -0.00100037
38 2 8.74911 11.3226 8.92221 0.00481105 -0.00767704 0.00734809
39 2 8.75305 10.6659 10.4499 -0.013007 0.0186503 -0.0208912
40 1 3.33113 4.37097 5.71334 0.00979389 0.00145544 0.00381312
41 2 4.74062 5.28104 4.51815 -0.0222864 0.0189814 0.0232852
42 2 12.6355 4.30775 6.5399 -0.000187371 -0.0197872 0.00569802
43 1 5.0582 5.87249 3.83459 -0.00309178 0.00393969 0.000851083
44 2 3.07489 8.29174 3.20181 -0.0227846 0.0156455 0.00229858
45 2 8.2489 12.5891 5.17216 -0.00904538 0.000684517 0.0120024
46 1 9.66989 11.552 7.39353 0.0044648 -0.000934321 -0.00906575
47 2 9.01143 11.8136 6.72161 -0.00741259 -0.0330261 -0.0120582
48 2 10.1299 10.505 6.93058 -0.00259357 -0.000151488 0.0140472
49 1 9.23267 7.15157 9.39791 -0.00375588 0.00469451 -0.000187438
50 2 8.54801 6.56156 9.14876 -0.00313812 0.0119715 -0.0164063
51 2 9.18865 7.21113 10.3796 -0.0229499 -0.00639958 0.012035
52 1 10.901 11.3984 3.54086 -0.00031429 -0.00191128 0.00637924
53 2 10.2931 12.0138 3.99339 -0.00785159 0.0123702 0.001836
54 2 11.2617 10.8318 4.28891 -0.00757199 -0.00521037 -0.00537295
55 1 6.12197 11.2529 3.23803 0.0118797 -0.00134731 0.0115093
56 2 6.20928 10.2719 2.96741 -0.00038901 -0.00653272 0.0140754
57 2 5.23297 11.5271 2.96023 0.00636941 -0.0156753 -0.0120874
58 1 6.6294 9.27247 8.60455 0.000316487 0.00118138 -0.000414522
59 2 5.11607 12.0969 8.70636 -0.0234214 0.0160916 -9.92773e-05
60 2 7.22582 9.84322 9.17732 -0.0263911 -0.00898352 0.016171
61 1 7.17761 5.6381 8.50124 -0.000136406 -0.00223938 -0.0051382
62 2 6.93038 5.3537 9.3832 0.0216964 -0.00359189 0.00198762
63 2 6.32251 6.00887 8.19821 -0.0356503 -0.0071737 0.0187209
64 1 5.04683 11.3499 8.01728 0.00038186 0.00528968 0.00154273
65 2 4.86037 11.4788 6.2896 -0.00243827 0.0152071 -0.0239932
66 2 4.53726 5.17658 6.8363 0.00820945 0.0020293 -0.00683016
67 1 10.8748 9.38223 6.96435 0.0017709 -0.00411068 -0.00901427
68 2 11.7339 9.63764 6.46555 -0.00425343 -0.0162401 0.0223059
69 2 11.1984 9.49747 7.93303 -0.0202735 -0.0106453 -0.0243698
70 1 11.1933 13.8047 7.52948 -0.00417611 8.37976e-05 -0.000479031
71 2 10.6482 12.9304 7.489 -0.0167989 0.00823799 0.0177861
72 2 11.2659 4.28964 8.50649 0.00398033 0.0316655 0.00268275
73 1 9.02787 6.60986 6.43344 0.00549183 0.00228181 0.00204092
74 2 8.39467 6.16161 7.00101 -0.00205502 -0.00678058 0.0107071
75 2 9.52434 7.08374 7.13042 0.0269301 0.0134601 0.00567943
76 1 11.5226 5.1778 9.89743 -0.000674572 0.000142744 -0.00658226
77 2 11.2177 6.06062 9.68516 -0.0392181 0.0185534 0.00204146
78 2 3.55034 6.71113 9.41601 -0.00246163 0.00246307 0.00260506
79 1 11.9977 9.74417 9.49765 -0.0061863 0.00126388 0.0010883
80 2 12.4524 8.89029 9.62309 -0.00828565 0.0254161 0.0117687
81 2 5.67852 10.5895 8.33055 -0.0396323 -0.0105807 0.00837868
82 1 6.60079 4.7606 11.4779 -0.00221989 -0.00293188 0.0003616
83 2 7.52301 4.73368 11.7054 -0.0198292 -0.000576421 -0.0164061
84 2 6.15694 4.98162 2.50674 0.00164772 -0.0114813 0.00990109
85 1 9.89813 4.41592 2.22239 0.00779221 -0.000356004 -0.00234503
86 2 10.4273 4.87466 2.85541 -0.00313788 -0.0185812 0.00338564
87 2 10.8718 4.8583 10.6166 0.0236462 0.0176006 0.0138344
88 1 7.20739 13.3589 6.62263 -0.00217037 -0.00402176 -0.000505518
89 2 6.27807 13.0318 6.54623 0.00863491 0.0125181 -0.00430529
90 2 7.18592 13.79 7.46092 0.0136119 0.00228693 0.00284922
91 1 4.99061 7.81261 5.77473 0.000909679 0.00285748 0.00129219
92 2 3.38092 8.87252 5.23711 0.0225365 0.00226869 0.00890943
93 2 4.79475 7.21806 6.57643 0.00782936 0.00497935 -0.0133203
94 1 4.48001 5.74978 7.65064 0.00460166 -0.0041413 -0.00517198
95 2 4.55898 5.03203 8.30464 -0.0192686 -0.0167725 -0.00733977
96 2 5.12715 7.16644 5.03124 0.00417698 -0.0150991 0.0102534
ITEM: TIMESTEP
2
ITEM: NUMBER OF ATOMS
96
ITEM: BOX BOUNDS pp pp pp
2.9236100000000000e+00 1.2773600000000000e+01
4.0306300000000004e+00 1.3880599999999999e+01
2.1372399999999998e+00 1.1987200000000000e+01
ITEM: ATOMS id type x y z vx vy vz
1 1 8.57606 12.1935 4.34806 0.000155403 0.00302764 -0.00299027
2 2 7.88814 11.6378 4.00569 0.0222517 -0.0256856 -0.00581637
3 2 9.97221 13.3241 2.34757 -0.0101602 -0.0193187 -0.00165297
4 1 3.27902 12.1002 11.8227 0.00163154 -0.00659323 0.00591404
5 2 12.6888 11.4663 11.2241 -0.0163478 -0.0382488 0.0266055
6 2 12.5345 12.0636 2.7931 -0.0164749 -0.0311336 0.0171538
7 1 12.7573 7.36941 2.88966 -0.00524848 -0.00221305 0.00383833
8 2 11.9578 7.09104 3.44319 -0.0101315 -0.0111884 -0.00115619
9 2 8.25303 8.06626 6.39059 -0.0123859 -0.00207039 0.0132292
10 1 7.56845 8.78469 6.21254 0.00303163 0.00897177 -0.000364662
11 2 6.73134 8.39371 5.9437 0.00614574 0.0200162 0.00785998
12 2 7.16311 9.04216 7.8063 0.0233956 0.0166723 0.0196495
13 1 6.1238 8.28056 2.4553 -0.00329884 0.00230898 0.00114323
14 2 5.71518 8.24584 11.4982 0.00236959 0.003224 0.0136991
15 2 5.90916 7.45626 2.93949 0.0136993 -0.00708344 0.00948459
16 1 8.93292 7.44814 2.45224 -0.003621 0.00101756 0.00109922
17 2 9.02923 6.50803 2.35092 -0.00311891 -0.00470995 0.000696873
18 2 7.99111 7.5618 2.75876 0.00246812 0.00204746 0.015498
19 1 3.73216 7.39223 10.0941 0.010028 0.00345101 0.000801346
20 2 3.20646 7.08487 10.8571 0.00201541 0.00466285 -0.00232967
21 2 11.3983 9.91975 10.2331 0.0128399 -0.00938217 -0.0265863
22 1 9.90463 9.81642 11.4944 0.00113179 -0.00425666 0.00391057
23 2 9.99403 10.4167 2.36336 -0.00543815 0.0129215 -0.0151785
24 2 9.39165 9.02593 11.8507 -0.0018755 0.00907726 -0.000583492
25 1 12.6715 9.66761 5.15936 -0.00421502 -0.00323471 -0.00266219
26 2 3.45099 10.3745 5.37163 0.000230131 0.0120849 -0.00675111
27 2 4.27165 6.30244 3.44248 -0.0112513 -0.0216692 0.0206125
28 1 11.2347 5.64727 4.32397 -0.00274291 0.000263763 -0.00354818
29 2 11.8895 5.04852 4.80657 0.0164092 0.00291102 -0.026072
30 2 10.6037 5.89662 5.00202 0.009555 -0.020427 0.0192232
31 1 4.5232 11.6607 5.35716 -0.00774665 0.000484134 -0.00908619
32 2 3.71455 13.3301 5.56737 -0.000936085 0.00653266 0.00921789
33 2 5.17737 11.3033 4.76704 0.00355514 -0.00976275 -0.0242729
34 1 4.76282 13.3357 9.81114 -0.00124789 -0.00465408 0.0020449
35 2 4.09408 12.8864 10.5185 0.0231399 -0.0081997 0.00378153
36 2 5.23257 4.22583 10.2617 0.020737 0.0119006 -0.000444298
37 1 8.1659 11.0595 9.72281 -0.0025726 0.00569676 -0.00106189
38 2 8.75127 11.3181 8.92676 0.00381025 -0.0102037 0.0105295
39 2 8.7466 10.6754 10.4385 -0.0124181 0.0187781 -0.0238326
40 1 3.33607 4.37169 5.71523 0.00994552 0.00140785 0.00378313
41 2 4.72868 5.2902 4.52994 -0.0249449 0.0177804 0.0236012
42 2 12.6349 4.29756 6.54304 -0.00205651 -0.0207229 0.00662061
43 1 5.05673 5.87448 3.835 -0.00278563 0.00396173 0.000852077
44 2 3.06334 8.29867 3.20271 -0.0234719 0.0115804 0.0011663
45 2 8.24398 12.5896 5.17818 -0.0105137 0.00105641 0.0115092
46 1 9.67208 11.5516 7.38893 0.00431428 -0.000968561 -0.00930233
47 2 9.00849 11.7968 6.71642 -0.00442426 -0.0340921 -0.00873265
48 2 10.1267 10.5087 6.93838 -0.0101252 0.0152146 0.01707
49 1 9.23091 7.15398 9.39789 -0.00327255 0.0049604 0.000164146
50 2 8.54521 6.56664 9.13991 -0.0079535 0.00846016 -0.0189765
51 2 9.17725 7.20825 10.3849 -0.0225942 -0.00511343 0.00901087
52 1 10.9009 11.3974 3.54412 2.2249e-06 -0.00199961 0.00664555
53 2 10.2887 12.0202 3.99429 -0.00939141 0.0126219 0.00168959
54 2 11.2577 10.8296 4.28505 -0.00840379 -0.00366144 -0.00967257
55 1 6.12791 11.2522 3.24376 0.0118632 -0.00184246 0.0113895
56 2 6.20842 10.2706 2.9748 -0.0028278 0.00122522 0.0155172
57 2 5.23661 11.5188 2.95381 0.00843201 -0.017294 -0.0134532
58 1 6.62947 9.27304 8.60441 -4.60398e-05 0.00108752 -0.000175054
59 2 5.10424 12.1041 8.70573 -0.0236863 0.0123542 -0.00236106
60 2 7.21326 9.83895 9.18585 -0.0237869 -0.00789383 0.0181746
61 1 7.17747 5.63696 8.49867 -0.000452177 -0.0022924 -0.00512259
62 2 6.94143 5.35151 9.3848 0.0225832 -0.00516969 0.00429203
63 2 6.30489 6.00541 8.20726 -0.0341422 -0.00694864 0.0175961
64 1 5.04706 11.3526 8.01808 0.000537492 0.00532803 0.00165501
65 2 4.8591 11.4864 6.27817 -0.0025064 0.0152032 -0.0214141
66 2 4.54103 5.17873 6.83288 0.00690335 0.00646637 -0.0069824
67 1 10.8758 9.37998 6.95995 0.00196203 -0.0049084 -0.00860365
68 2 11.7323 9.62987 6.47553 -0.0015078 -0.0146352 0.017065
69 2 11.188 9.49191 7.92161 -0.0212818 -0.0116303 -0.0207481
70 1 11.1912 13.8047 7.52928 -0.00423635 -4.27785e-05 -0.000325092
71 2 10.6403 12.9353 7.4984 -0.0148564 0.0114346 0.0197744
72 2 11.2677 4.30486 8.5067 0.00285376 0.028998 -0.00204152
73 1 9.03067 6.61101 6.4345 0.00570661 0.0023322 0.002245
74 2 8.39323 6.15763 7.0062 -0.00312426 -0.00873356 0.00974221
75 2 9.53826 7.09021 7.13295 0.0281961 0.0120043 0.00393416
76 1 11.5222 5.17783 9.8942 -0.00084762 6.84084e-05 -0.00634611
77 2 11.1976 6.07012 9.68601 -0.0406495 0.018565 0.00141986
78 2 3.54945 6.71279 9.41766 -0.00104153 0.00424624 0.00395491
79 1 11.9946 9.74483 9.49815 -0.0062006 0.0014277 0.000858487
80 2 12.4482 8.90304 9.62964 -0.00803902 0.0247937 0.0143898
81 2 5.65804 10.5848 8.33429 -0.0420471 -0.00825169 0.00681227
82 1 6.59963 4.75918 11.4782 -0.00249045 -0.00273907 0.000642991
83 2 7.51341 4.73314 11.6973 -0.0177091 -0.00161348 -0.0158696
84 2 6.15844 4.97552 2.51011 0.00432832 -0.0128994 0.00357613
85 1 9.90192 4.41578 2.22106 0.00737752 -0.00022916 -0.00297003
86 2 10.4267 4.86552 2.85849 0.000684642 -0.0178682 0.00909228
87 2 10.8843 4.86737 10.6228 0.0263135 0.0183103 0.011089
88 1 7.20622 13.3568 6.62232 -0.00245224 -0.00427905 -0.000713804
89 2 6.2835 13.0381 6.54399 0.0124787 0.0127436 -0.00458607
90 2 7.19304 13.7918 7.46297 0.0147807 0.00474982 0.00511091
91 1 4.99106 7.81397 5.77543 0.000894137 0.00257373 0.00149143
92 2 3.3923 8.87274 5.24178 0.0225627 -0.000988075 0.0096708
93 2 4.79888 7.22161 6.56873 0.0085174 0.00905679 -0.0167756
94 1 4.48235 5.74761 7.64804 0.00475905 -0.00453988 -0.00519691
95 2 4.5491 5.02422 8.30167 -0.0202763 -0.0143226 -0.0046619
96 2 5.12921 7.15922 5.03644 0.00408775 -0.013533 0.0103959
ITEM: TIMESTEP
3
ITEM: NUMBER OF ATOMS
96
ITEM: BOX BOUNDS pp pp pp
2.9236100000000000e+00 1.2773600000000000e+01
4.0306300000000004e+00 1.3880599999999999e+01
2.1372399999999998e+00 1.1987200000000000e+01
ITEM: ATOMS id type x y z vx vy vz
1 1 8.57618 12.195 4.34662 0.000319518 0.00321214 -0.00274918
2 2 7.89834 11.6247 4.00251 0.0186831 -0.0264941 -0.00671849
3 2 9.9675 13.3141 2.34746 -0.00876073 -0.0200391 0.00105845
4 1 3.27978 12.0969 11.8257 0.00134456 -0.00678025 0.00611308
5 2 12.6809 11.4474 11.2379 -0.0147799 -0.036492 0.0283079
6 2 12.527 12.048 2.80023 -0.0129881 -0.0309479 0.0110338
7 1 12.7546 7.36837 2.89165 -0.00551068 -0.00191298 0.00415689
8 2 11.954 7.08529 3.44183 -0.00534799 -0.0117783 -0.00430821
9 2 8.24655 8.06492 6.39662 -0.0134129 -0.0033661 0.0109303
10 1 7.56999 8.78928 6.21236 0.00318042 0.0093574 -0.000354456
11 2 6.73345 8.40299 5.94744 0.0020623 0.0170628 0.00704995
12 2 7.17521 9.05046 7.81498 0.0250025 0.0164762 0.0149624
13 1 6.12226 8.28175 2.45604 -0.00287093 0.00240453 0.00183939
14 2 5.71503 8.24676 11.5032 -0.00318219 0.000363804 0.00600151
15 2 5.91571 7.45328 2.94339 0.0124824 -0.00466699 0.00595792
16 1 8.93103 7.44865 2.45282 -0.00392568 0.000978539 0.00123676
17 2 9.02778 6.50501 2.35148 -0.00270886 -0.00706196 0.00157241
18 2 7.99319 7.56279 2.76595 0.00579791 0.00191466 0.0132814
19 1 3.73713 7.39393 10.0945 0.00983886 0.00333425 0.000710383
20 2 3.20789 7.08747 10.8559 0.00372892 0.00577393 -0.00258263
21 2 11.4044 9.91436 10.2201 0.010777 -0.0117084 -0.0240844
22 1 9.90514 9.81423 11.4962 0.000957818 -0.00448316 0.00342181
23 2 9.99181 10.4246 2.35746 -0.00351271 0.0184238 -0.00845555
24 2 9.3911 9.03077 11.8501 -0.000478616 0.0101096 -0.00162966
25 1 12.6694 9.66588 5.15795 -0.00422198 -0.00367423 -0.00294532
26 2 3.45171 10.3824 5.36856 0.00216134 0.0189142 -0.00570521
27 2 4.26516 6.29175 3.45256 -0.0147693 -0.0206834 0.0192956
28 1 11.2333 5.64738 4.32222 -0.00267947 0.000193603 -0.00345956
29 2 11.8974 5.05043 4.79303 0.0152167 0.00474757 -0.0280725
30 2 10.608 5.88668 5.01188 0.00771853 -0.0193424 0.0200848
31 1 4.51927 11.661 5.35269 -0.00791052 0.000768187 -0.00884798
32 2 3.71397 13.3331 5.57184 -0.00111746 0.00511286 0.00842971
33 2 5.18053 11.298 4.75364 0.00852361 -0.0113978 -0.0287169
34 1 4.76208 13.3333 9.81227 -0.00168664 -0.00468429 0.00244119
35 2 4.1079 12.8839 10.5188 0.0317118 -0.00188347 -0.0021282
36 2 5.24275 4.23068 10.2619 0.0196129 0.00694819 0.000850672
37 1 8.16467 11.0624 9.72226 -0.00238592 0.00593942 -0.0011754
38 2 8.75292 11.3124 8.93274 0.00280396 -0.0123233 0.0130068
39 2 8.74063 10.6847 10.426 -0.011053 0.0181456 -0.0251379
40 1 3.34108 4.37238 5.71712 0.0100372 0.00137408 0.00381104
41 2 4.71567 5.29882 4.54175 -0.0265407 0.0168846 0.0233475
42 2 12.6334 4.28703 6.54652 -0.00375808 -0.0211775 0.00699263
43 1 5.05541 5.87646 3.83544 -0.00251309 0.00390752 0.000944768
44 2 3.05142 8.30333 3.20298 -0.0242129 0.0067971 -0.000143434
45 2 8.23839 12.5901 5.18367 -0.0117466 0.000798293 0.00992128
46 1 9.67421 11.5511 7.38422 0.00416938 -0.0010501 -0.00953945
47 2 9.00701 11.7795 6.71288 -0.00171482 -0.0346696 -0.00559611
48 2 10.1198 10.5202 6.94765 -0.0175435 0.0306909 0.0199581
49 1 9.2294 7.15653 9.39807 -0.00282065 0.00519884 0.0005555
50 2 8.54006 6.57002 9.12979 -0.0123361 0.00536961 -0.0214233
51 2 9.16605 7.20601 10.3886 -0.022174 -0.00384817 0.00522764
52 1 10.901 11.3964 3.5475 0.000264479 -0.00202035 0.00686586
53 2 10.2837 12.0265 3.99508 -0.0103854 0.0121624 0.00141722
54 2 11.2533 10.8281 4.27924 -0.00900173 -0.00251589 -0.0130214
55 1 6.13383 11.2511 3.24942 0.0117879 -0.002333 0.0112542
56 2 6.20645 10.2731 2.98292 -0.00476486 0.00854413 0.016974
57 2 5.2414 11.5098 2.94678 0.0108549 -0.0185237 -0.0145623
58 1 6.62935 9.27356 8.60438 -0.000418559 0.000979507 6.52909e-05
59 2 5.09238 12.1093 8.704 -0.0235499 0.00829514 -0.00440561
60 2 7.20204 9.83532 9.19549 -0.0211388 -0.00650944 0.0204786
61 1 7.17716 5.63581 8.49611 -0.000859234 -0.00231506 -0.00510855
62 2 6.95297 5.34853 9.38749 0.0236621 -0.00667963 0.00624826
63 2 6.28837 6.00192 8.21581 -0.0313264 -0.00725576 0.016686
64 1 5.04736 11.3553 8.01893 0.000638654 0.00538459 0.00171273
65 2 4.85786 11.494 6.26818 -0.00233027 0.0150364 -0.0183345
66 2 4.54416 5.18305 6.82932 0.00566848 0.0106283 -0.00743022
67 1 10.8768 9.37732 6.95574 0.00209276 -0.00572769 -0.00821782
68 2 11.7324 9.62301 6.48262 0.0020942 -0.0127074 0.011004
69 2 11.1772 9.48584 7.91228 -0.0221505 -0.0127413 -0.0162502
70 1 11.1891 13.8046 7.52916 -0.00428068 -0.000140598 -0.00016283
71 2 10.6334 12.9419 7.50877 -0.0128114 0.0146518 0.0216773
72 2 11.2688 4.31863 8.50445 0.00156711 0.0259734 -0.00700214
73 1 9.03358 6.61219 6.43569 0.00590214 0.0023914 0.00254504
74 2 8.39154 6.15288 7.01075 -0.00311215 -0.009838 0.00819525
75 2 9.55254 7.09575 7.13436 0.0283947 0.0097849 0.00132062
76 1 11.5218 5.17787 9.89108 -0.00105288 0.000163537 -0.0061399
77 2 11.177 6.07919 9.68658 -0.0411331 0.0168586 0.000869212
78 2 3.5493 6.71538 9.41997 0.000471863 0.0060757 0.00520189
79 1 11.9915 9.7456 9.4985 -0.00614566 0.00164606 0.000502429
80 2 12.4444 8.91508 9.63748 -0.00684635 0.022646 0.0169154
81 2 5.63647 10.5813 8.33736 -0.0439224 -0.00591695 0.0057132
82 1 6.5983 4.75786 11.4785 -0.00285342 -0.00255044 0.000877352
83 2 7.5053 4.73207 11.6896 -0.0139681 -0.00269661 -0.0149051
84 2 6.16127 4.96872 2.51032 0.00685944 -0.0142173 -0.00248735
85 1 9.90551 4.41569 2.21942 0.00696451 -0.00019951 -0.00358692
86 2 10.428 4.85679 2.86451 0.0045628 -0.0170586 0.014955
87 2 10.8981 4.87661 10.6277 0.0286096 0.0182398 0.00873008
88 1 7.20493 13.3546 6.62192 -0.00262998 -0.00448597 -0.000893306
89 2 6.29055 13.0445 6.54165 0.0149191 0.0125713 -0.00475704
90 2 7.2007 13.7947 7.46603 0.0157226 0.00685428 0.00678175
91 1 4.9915 7.81518 5.77622 0.000887713 0.00230491 0.00161194
92 2 3.40348 8.87153 5.24678 0.0217321 -0.00334229 0.0102393
93 2 4.80327 7.22711 6.55965 0.00883275 0.01266 -0.0186815
94 1 4.48477 5.74524 7.64544 0.00492049 -0.00494341 -0.00517082
95 2 4.53871 5.01771 8.29997 -0.0213074 -0.0116038 -0.00230417
96 2 5.13124 7.15291 5.04164 0.00409405 -0.0115432 0.0101596
