ITEM: TIMESTEP
0
ITEM: NUMBER OF ATOMS
96
ITEM: BOX BOUNDS pp pp pp
2.9236100000000000e+00 1.2773600000000000e+01
4.0306300000000004e+00 1.3880599999999999e+01
2.1372399999999998e+00 1.1987200000000000e+01
ITEM: ATOMS id type x y z vx vy vz
1 1 8.57622 12.1892 4.35293 0.000330017 -0.00269608 0.00339672
2 2 7.84674 11.6739 4.01147 -0.0322025 0.022741 0.00167391
3 2 9.99104 13.3473 2.35681 0.0151177 0.00972298 0.0108481
4 1 3.2764 12.11 11.8141 -0.00158245 0.00660807 -0.00559308
5 2 12.7134 11.5243 11.1875 0.0144233 0.0371687 -0.0229048
6 2 12.5629 12.1088 2.75655 0.0184988 0.0281591 -0.0291205
7 1 12.7647 7.37326 2.88454 0.00467706 0.00280812 -0.003071
8 2 11.9827 7.106 3.43851 0.0215654 0.00833051 -0.00650309
9 2 8.26842 8.06707 6.36541 0.0076141 -0.000557974 -0.0204415
10 1 7.56408 8.77207 6.21305 -0.00291148 -0.00790594 0.000251162
11 2 6.71512 8.35773 5.93074 -0.0136974 -0.0271934 -0.00884435
12 2 7.13113 9.01728 7.76801 -0.0198479 -0.0159294 -0.0296597
13 1 6.12957 8.27738 2.45481 0.00427104 -0.001904 0.000195252
14 2 5.70143 8.23529 11.4644 -0.0138989 -0.0102313 -0.0277859
15 2 5.88593 7.47083 2.91862 -0.0172961 0.0111678 -0.0172798
16 1 8.93767 7.44662 2.45091 0.00274603 -0.000996728 -0.000683847
17 2 9.03507 6.50848 2.35154 0.00477492 -0.00439 0.00138696
18 2 7.99467 7.55865 2.73075 0.00650629 -0.00196363 -0.0215196
19 1 3.71672 7.38688 10.0927 -0.0105141 -0.00361438 -0.00114322
20 2 3.20678 7.07985 10.8601 0.00199316 -0.00248458 0.00172744
21 2 11.3803 9.926 10.2716 -0.00815853 -0.00224726 0.021066
22 1 9.90245 9.82227 11.4875 -0.00178586 0.00360217 -0.005097
23 2 10.0068 10.4093 2.40006 0.011502 0.00190108 0.0318866
24 2 9.39839 9.01565 11.848 0.00742185 -0.00415173 -0.00466236
25 1 12.6775 9.67154 5.1626 0.0036852 0.00208242 0.00160395
26 2 3.45746 10.3732 5.38494 0.0096839 0.0101072 0.0111824
27 2 4.28185 6.33453 3.4114 0.00357504 0.0193896 -0.0190959
28 1 11.2389 5.64674 4.32944 0.00281962 -0.000398231 0.00370379
29 2 11.8623 5.04803 4.84121 -0.0195133 0.0019241 0.0203705
30 2 10.5851 5.92955 4.97553 -0.0148401 0.0232106 -0.0161343
31 1 4.53432 11.6607 5.37161 0.00707217 0.000490725 0.0102893
32 2 3.714 13.3189 5.55323 -0.002545 -0.00732272 -0.00879829
33 2 5.18576 11.3128 4.79086 0.0152074 0.00255028 0.00712343
34 1 4.76348 13.3423 9.80889 -0.000437456 0.00405328 -0.001081
35 2 4.08002 12.9132 10.4981 0.00390237 0.0267767 -0.023134
36 2 5.20172 4.20098 10.2671 -0.0184279 -0.0182974 0.00791363
37 1 8.17038 11.0514 9.72431 0.00347997 -0.00511373 0.00104244
38 2 8.74339 11.3275 8.91854 -0.00646489 0.00183383 0.000252035
39 2 8.76598 10.648 10.4665 0.0123334 -0.0166221 0.0112911
40 1 3.32154 4.36945 5.70945 -0.00933509 -0.00161028 -0.00400802
41 2 4.75934 5.26065 4.49561 0.0144454 -0.0218898 -0.0215293
42 2 12.6338 4.32616 6.53553 -0.00360508 0.0166329 -0.00281117
43 1 5.0616 5.86866 3.83365 0.00370437 -0.0036613 -0.00110007
44 2 3.09712 8.27311 3.19869 0.0218681 -0.0202733 -0.00352076
45 2 8.25629 12.5894 5.16076 0.00559876 0.00191732 -0.00981058
46 1 9.66528 11.553 7.40237 -0.00472675 0.000962858 0.00864162
47 2 9.02176 11.8453 6.73689 0.0128252 0.0302241 0.0181111
48 2 10.125 10.5201 6.9197 -0.0120566 0.0291383 -0.00757672
49 1 9.23691 7.14714 9.39838 0.00471069 -0.00417661 0.000674402
50 2 8.54633 6.54604 9.16269 -0.00608382 -0.0187187 0.0117282
51 2 9.21186 7.21882 10.3655 0.0233485 0.00897101 -0.0151027
52 1 10.9016 11.4001 3.53477 0.00105489 0.00158335 -0.00579112
53 2 10.2989 12.0024 3.99155 0.00315111 -0.00990148 -0.00170474
54 2 11.2684 10.8387 4.28932 0.00568691 0.0086591 -0.00488953
55 1 6.11013 11.2538 3.22643 -0.0117301 0.000468982 -0.011647
56 2 6.20684 10.286 2.95462 -0.00553273 0.020907 -0.0117972
57 2 5.22811 11.5409 2.97065 -0.00405548 0.0117855 0.008392
58 1 6.62875 9.27122 8.6052 -0.00093147 -0.00129741 0.00084904
59 2 5.13881 12.0777 8.70414 0.0216415 -0.0216443 -0.00443784
60 2 7.25456 9.85279 9.16263 0.0306251 0.00947423 -0.0139063
61 1 7.17753 5.64025 8.50641 -0.000196084 0.00201577 0.00522733
62 2 6.90935 5.35573 9.38366 -0.0206191 0.000561298 0.00285689
63 2 6.35826 6.01683 8.17814 0.0344401 0.00929728 -0.0216291
64 1 5.04665 11.3447 8.01588 6.61174e-05 -0.00528486 -0.00122237
65 2 4.8625 11.4638 6.31543 0.00160461 -0.0146386 0.0267552
66 2 4.52769 5.17906 6.84318 -0.0109763 0.00681881 0.00703518
67 1 10.8733 9.38559 6.9738 -0.00113799 0.00267308 0.00992266
68 2 11.7397 9.65499 6.43922 0.00589541 0.0178347 -0.028828
69 2 11.2175 9.50726 7.95975 0.0177035 0.00904598 0.0274745
70 1 11.1974 13.8044 7.53009 0.00402825 -0.000404131 0.000686008
71 2 10.6668 12.9253 7.47322 0.0201448 -0.00236708 -0.0138187
72 2 11.2611 4.2558 8.49965 -0.00552103 -0.0353811 -0.0101046
73 1 9.02261 6.60761 6.4315 -0.00502875 -0.00223409 -0.00195966
74 2 8.3946 6.16562 6.98993 -0.00317145 0.000496549 -0.0109223
75 2 9.49987 7.06961 7.12409 -0.0207916 -0.0139631 -0.0058116
76 1 11.5231 5.17742 9.90427 0.000446576 -0.000765616 0.00711349
77 2 11.2546 6.04383 9.68239 0.0337582 -0.0134335 -0.00358724
78 2 3.55407 6.71025 9.41472 0.00482019 0.000360496 -0.000125102
79 1 12.0038 9.743 9.49645 0.00597538 -0.0011297 -0.00120863
80 2 12.4601 8.8658 9.61398 0.0062192 -0.0221204 -0.00648366
81 2 5.71535 10.6022 8.32021 0.0338371 0.0140666 -0.0126148
82 1 6.60286 4.76372 11.4778 0.00203975 0.00329991 0.000232909
83 2 7.54323 4.73328 11.7219 0.0189398 -0.00133637 0.0160572
84 2 6.15789 4.9917 2.49075 0.00321082 0.00884029 -0.0213727
85 1 9.88995 4.4165 2.22414 -0.00852381 0.000889094 0.00120768
86 2 10.4338 4.89361 2.85715 0.0091811 0.018742 0.0059199
87 2 10.8511 4.84212 10.5999 -0.0177352 -0.0141357 -0.0197216
88 1 7.20919 13.3626 6.62292 0.00138553 0.00341492 6.95573e-05
89 2 6.27437 13.0198 6.55014 0.00195688 -0.0111852 0.00342094
90 2 7.17366 13.7904 7.46067 -0.0107436 0.00313859 0.00239381
91 1 4.98968 7.80948 5.7737 -0.000947497 -0.00336778 -0.000728575
92 2 3.35919 8.86639 5.22917 -0.0202673 -0.0101844 -0.00676651
93 2 4.7879 7.21736 6.58511 -0.00568921 0.00350894 0.00331026
94 1 4.47556 5.75354 7.65575 -0.00430345 0.00342227 0.00502505
95 2 4.57729 5.05091 8.31487 0.0174036 0.0206079 0.0132185
96 2 5.12281 7.18256 5.02137 -0.00457008 0.0164811 -0.00938801
ITEM: TIMESTEP
1
ITEM: NUMBER OF ATOMS
96
ITEM: BOX BOUNDS pp pp pp
2.9236100000000000e+00 1.2773600000000000e+01
4.0306300000000004e+00 1.3880599999999999e+01
2.1372399999999998e+00 1.1987200000000000e+01
ITEM: ATOMS id type x y z vx vy vz
1 1 8.57641 12.1879 4.35464 0.000413186 -0.00269483 0.00341721
2 2 7.83002 11.6851 4.01194 -0.0341646 0.0223112 0.000308769
3 2 9.99904 13.3511 2.36302 0.0168334 0.00533993 0.0139475
4 1 3.27567 12.1133 11.8113 -0.00125548 0.00676817 -0.00559803
5 2 12.7201 11.5424 11.1762 0.0118165 0.0349006 -0.0225397
6 2 12.5717 12.1225 2.74154 0.0160201 0.0263479 -0.0300407
7 1 12.767 7.37469 2.88305 0.00460861 0.00286898 -0.00294474
8 2 11.9941 7.10983 3.43484 0.0234139 0.00684947 -0.00775798
9 2 8.27174 8.06665 6.35458 0.00565282 -0.00106545 -0.0228526
10 1 7.56261 8.7682 6.21315 -0.00302729 -0.00761137 0.000145522
11 2 6.70803 8.34372 5.92636 -0.0140852 -0.0285423 -0.008478
12 2 7.12136 9.00951 7.75275 -0.0194747 -0.0149532 -0.0306985
13 1 6.13176 8.27647 2.45495 0.0044373 -0.00173037 0.000272642
14 2 5.69398 8.22973 11.4501 -0.0151622 -0.0117522 -0.0280062
15 2 5.87698 7.4765 2.90957 -0.0185257 0.0111144 -0.0185364
16 1 8.93898 7.44612 2.4506 0.00252381 -0.000999601 -0.000566954
17 2 9.03761 6.50551 2.35238 0.00538284 -0.00733395 0.00197729
18 2 7.99848 7.55772 2.71957 0.00833959 -0.00170338 -0.0230713
19 1 3.71143 7.38508 10.0921 -0.0106242 -0.00357228 -0.00126867
20 2 3.20801 7.07869 10.861 0.00276211 -0.00231275 0.00175891
21 2 11.3772 9.92369 10.281 -0.00391938 -0.00709806 0.01577
22 1 9.9015 9.82403 11.4849 -0.00200716 0.00349113 -0.00530393
23 2 10.013 10.4112 2.41693 0.0133278 0.00497574 0.0347167
24 2 9.40262 9.01407 11.8451 0.00948882 -0.00209942 -0.00683881
25 1 12.6793 9.6725 5.1633 0.00344045 0.00179229 0.0012059
26 2 3.46325 10.38 5.39092 0.0133703 0.0163916 0.0126197
27 2 4.28328 6.34367 3.40233 0.00256308 0.0167166 -0.0167279
28 1 11.2403 5.64654 4.3313 0.00275599 -0.000395191 0.00371989
29 2 11.8523 5.04931 4.85099 -0.020198 0.00303342 0.0189194
30 2 10.5773 5.94132 4.96769 -0.0160228 0.0237193 -0.0153353
31 1 4.5378 11.661 5.37687 0.00688182 0.000782847 0.0107689
32 2 3.71226 13.3154 5.54904 -0.00459543 -0.00641814 -0.0077835
33 2 5.19493 11.3135 4.79301 0.0210991 0.00027579 0.00194237
34 1 4.76311 13.3443 9.8084 -0.00101865 0.0037592 -0.00093638
35 2 4.08402 12.9279 10.485 0.011319 0.0314026 -0.0286299
36 2 5.19312 4.19192 10.2719 -0.0154094 -0.0171161 0.0115562
37 1 8.17221 11.0489 9.72485 0.0038345 -0.00495446 0.00114322
38 2 8.74 11.3276 8.91967 -0.00694672 -0.00122584 0.0041942
39 2 8.77195 10.6401 10.4707 0.0114165 -0.0150545 0.00539252
40 1 3.31694 4.36862 5.70741 -0.00904621 -0.00171866 -0.00414768
41 2 4.76542 5.24933 4.48512 0.00966164 -0.0233119 -0.0204577
42 2 12.6315 4.33399 6.53453 -0.00531023 0.0145198 -0.00118899
43 1 5.06352 5.86688 3.83305 0.00397062 -0.00341795 -0.00132345
44 2 3.10799 8.26275 3.19689 0.0217583 -0.0203902 -0.00341474
45 2 8.25863 12.5908 5.15637 0.00377717 0.00399775 -0.0074237
46 1 9.66289 11.5535 7.40664 -0.00480294 0.000981339 0.00847056
47 2 9.02873 11.8601 6.74659 0.0146206 0.0289044 0.0202934
48 2 10.1172 10.5381 6.91676 -0.0188509 0.0421893 -0.00413225
49 1 9.23938 7.14511 9.39876 0.0051316 -0.00397094 0.000777049
50 2 8.54227 6.53595 9.16805 -0.00968046 -0.0212054 0.00998542
51 2 9.22355 7.22362 10.3578 0.0233357 0.0102161 -0.0149954
52 1 10.9022 11.4008 3.53195 0.00144577 0.00137905 -0.00551141
53 2 10.2998 11.9979 3.99075 0.000104155 -0.00789376 -0.00145977
54 2 11.271 10.8434 4.28553 0.00489957 0.0101104 -0.0101775
55 1 6.1043 11.2539 3.2206 -0.0115687 0.000146152 -0.0116407
56 2 6.20328 10.298 2.94892 -0.00875759 0.0263515 -0.0112373
57 2 5.22619 11.5463 2.9743 -0.0040616 0.00976154 0.00601791
58 1 6.62822 9.27056 8.60567 -0.00115481 -0.00130916 0.001026
59 2 5.14931 12.0664 8.70139 0.0201531 -0.0230231 -0.00636781
60 2 7.27027 9.85741 9.15578 0.0318693 0.008571 -0.013909
61 1 7.17741 5.64122 8.50904 -0.000222689 0.00184124 0.00532063
62 2 6.89911 5.35566 9.38566 -0.0204406 -0.000716248 0.00495918
63 2 6.37498 6.02188 8.16691 0.0318908 0.0110888 -0.0233086
64 1 5.04675 11.3421 8.01531 0.000340454 -0.00532783 -0.00104722
65 2 4.86315 11.4566 6.32891 0.000921547 -0.0140393 0.0266355
66 2 4.52185 5.18352 6.84674 -0.0123956 0.0108015 0.00718757
67 1 10.8728 9.38677 6.97888 -0.00068245 0.00208973 0.010426
68 2 11.7425 9.66394 6.42439 0.00436991 0.0175816 -0.0295897
69 2 11.226 9.51161 7.97346 0.0160579 0.00836501 0.0263877
70 1 11.1994 13.8042 7.53045 0.00395103 -0.000584867 0.000705682
71 2 10.6772 12.9248 7.46679 0.0214646 7.97415e-05 -0.0120046
72 2 11.2582 4.23781 8.49391 -0.00584943 -0.0362184 -0.0121977
73 1 9.02015 6.60649 6.4305 -0.00479749 -0.00224952 -0.00207042
74 2 8.39212 6.1649 6.98457 -0.00705865 -0.00361395 -0.0104023
75 2 9.49054 7.06278 7.12146 -0.0160672 -0.0129335 -0.00419412
76 1 11.5233 5.17692 9.9079 0.000397787 -0.00126622 0.00738741
77 2 11.2706 6.03814 9.68038 0.0299881 -0.0087702 -0.00448113
78 2 3.55673 6.71069 9.41492 0.00568949 0.0011535 0.000777559
79 1 12.0067 9.74244 9.49585 0.00580151 -0.0011591 -0.00113921
80 2 12.4628 8.8555 9.61139 0.00420715 -0.0185427 -0.00393215
81 2 5.7315 10.6095 8.3133 0.0308011 0.0147376 -0.0151177
82 1 6.60389 4.76541 11.478 0.00214771 0.00345995 0.000487085
83 2 7.55218 4.73239 11.7298 0.0161985 -0.00221048 0.0151966
84 2 6.16001 4.99584 2.47884 0.00491078 0.00786922 -0.0255852
85 1 9.88561 4.41703 2.22462 -0.00879521 0.00126523 0.000752938
86 2 10.4389 4.90285 2.86102 0.0108244 0.017813 0.00890793
87 2 10.843 4.83563 10.5893 -0.014816 -0.0115977 -0.0224791
88 1 7.20977 13.3642 6.6229 0.000937277 0.0030999 -0.000123128
89 2 6.27683 13.0144 6.55172 0.00793048 -0.0102791 0.00284399
90 2 7.16868 13.7927 7.46252 -0.00912531 0.00578128 0.00479839
91 1 4.9892 7.80774 5.77342 -0.000959075 -0.00354608 -0.000407347
92 2 3.34949 8.86028 5.22611 -0.0183344 -0.0140358 -0.00537919
93 2 4.78536 7.22014 6.58536 -0.00445136 0.00735452 -0.00233521
94 1 4.47344 5.75517 7.65824 -0.004163 0.00312882 0.00493637
95 2 4.58577 5.0616 8.32223 0.0165696 0.021931 0.0161506
96 2 5.12046 7.19081 5.0168 -0.00483021 0.0161386 -0.00895864
ITEM: TIMESTEP
2
ITEM: NUMBER OF ATOMS
96
ITEM: BOX BOUNDS pp pp pp
2.9236100000000000e+00 1.2773600000000000e+01
4.0306300000000004e+00 1.3880599999999999e+01
2.1372399999999998e+00 1.1987200000000000e+01
ITEM: ATOMS id type x y z vx vy vz
1 1 8.57663 12.1865 4.35635 0.000421154 -0.00275096 0.00339099
2 2 7.81258 11.6962 4.01178 -0.0349883 0.0224055 -0.000832536
3 2 10.0079 13.3526 2.37076 0.0184245 0.00119119 0.0168656
4 1 3.27514 12.1168 11.8085 -0.000792782 0.00697476 -0.00566465
5 2 12.7252 11.5592 11.165 0.00851168 0.0319834 -0.0226163
6 2 12.5789 12.1351 2.72651 0.012003 0.0243247 -0.0292572
7 1 12.7693 7.37613 2.8816 0.00461481 0.00285692 -0.00290458
8 2 12.0061 7.11285 3.43075 0.0239828 0.0050679 -0.00812869
9 2 8.27407 8.066 6.34256 0.0037362 -0.00152931 -0.0251534
10 1 7.56105 8.76446 6.2132 -0.00323103 -0.0073537 -1.07596e-06
11 2 6.70103 8.32919 5.92226 -0.013368 -0.0292225 -0.00774114
12 2 7.11166 9.00233 7.73731 -0.019567 -0.0135625 -0.0303426
13 1 6.13401 8.27565 2.45508 0.00451567 -0.00154469 0.000151521
14 2 5.68627 8.22354 11.4364 -0.0150119 -0.0127363 -0.0259048
15 2 5.8674 7.48194 2.90008 -0.0197614 0.0103077 -0.0189865
16 1 8.94019 7.44562 2.45034 0.00235902 -0.00103493 -0.00046987
17 2 9.04045 6.50115 2.35352 0.00596606 -0.0098405 0.00256021
18 2 8.00301 7.55695 2.70768 0.00928569 -0.00130874 -0.0243213
19 1 3.7061 7.38331 10.0914 -0.0107011 -0.00347289 -0.00139326
20 2 3.20954 7.07754 10.8619 0.0032071 -0.00245845 0.00196081
21 2 11.3764 9.9189 10.2874 0.000984786 -0.0120723 0.00946772
22 1 9.90044 9.82576 11.4822 -0.00220847 0.00346521 -0.00538911
23 2 10.0201 10.4143 2.43478 0.0149293 0.00675916 0.035685
24 2 9.40788 9.01355 11.8412 0.011532 1.99666e-05 -0.0090714
25 1 12.6809 9.67333 5.16381 0.00321477 0.00155772 0.000803955
26 2 3.47083 10.3896 5.39756 0.0167262 0.0213877 0.0137833
27 2 4.28441 6.35125 3.39467 0.00239074 0.0131555 -0.0135528
28 1 11.2417 5.64634 4.33316 0.00262889 -0.000358387 0.00371776
29 2 11.8421 5.05106 4.86013 -0.0206448 0.00379133 0.0178291
30 2 10.5691 5.95327 4.96019 -0.016714 0.023909 -0.0147974
31 1 4.5412 11.6615 5.38238 0.00675278 0.00102529 0.0112364
32 2 3.7094 13.3125 5.54545 -0.00697545 -0.00505306 -0.00641186
33 2 5.20686 11.3131 4.7928 0.0259943 -0.00151631 -0.00212903
34 1 4.76246 13.3461 9.80795 -0.00154399 0.00347463 -0.00091662
35 2 4.09134 12.9446 10.4695 0.0168967 0.0345685 -0.0329028
36 2 5.18631 4.18386 10.2787 -0.0113125 -0.01443 0.0155613
37 1 8.17421 11.0464 9.72545 0.00417807 -0.00480331 0.00129177
38 2 8.73644 11.3263 8.92273 -0.00708624 -0.00419302 0.00790775
39 2 8.7774 10.6329 10.4719 0.0103729 -0.0133597 -0.0006927
40 1 3.31249 4.36773 5.7053 -0.00873247 -0.00184356 -0.00429688
41 2 4.769 5.23734 4.47515 0.00458082 -0.0244964 -0.019512
42 2 12.6285 4.34068 6.53434 -0.00676048 0.0121303 0.000328117
43 1 5.06557 5.86524 3.83233 0.00419244 -0.00312339 -0.00158775
44 2 3.11888 8.25272 3.19528 0.0219224 -0.0189572 -0.00276734
45 2 8.26007 12.5934 5.15334 0.00202424 0.00642293 -0.00450744
46 1 9.66048 11.554 7.41084 -0.00482774 0.000983406 0.00833732
47 2 9.03638 11.8742 6.75718 0.015463 0.0279318 0.0216269
48 2 10.1061 10.5623 6.91557 -0.0249627 0.0537464 -0.000584641
49 1 9.24204 7.14317 9.39916 0.00548827 -0.00382553 0.000776655
50 2 8.53665 6.52483 9.17268 -0.0121798 -0.0226977 0.00881069
51 2 9.2352 7.22904 10.3505 0.0231502 0.0114047 -0.0138277
52 1 10.903 11.4015 3.52926 0.00182591 0.00117573 -0.00526712
53 2 10.299 11.9945 3.99009 -0.00326129 -0.005584 -0.00115323
54 2 11.2733 10.8488 4.27914 0.00439371 0.0110962 -0.015109
55 1 6.09856 11.2539 3.21479 -0.0113589 -6.40464e-05 -0.0115718
56 2 6.19808 10.3124 2.94338 -0.0119814 0.0299641 -0.0112261
57 2 5.22405 11.5507 2.97667 -0.00490856 0.00782568 0.00330356
58 1 6.6276 9.26991 8.60623 -0.00131103 -0.00128699 0.00116779
59 2 5.15896 12.0547 8.69777 0.0183159 -0.0232475 -0.0078474
60 2 7.28643 9.86136 9.14872 0.0323356 0.00679598 -0.0147185
61 1 7.17731 5.64209 8.51173 -0.000176846 0.00162972 0.00545179
62 2 6.88891 5.35501 9.38862 -0.0204837 -0.00172602 0.00657783
63 2 6.39015 6.02792 8.15483 0.0283687 0.0131934 -0.0249789
64 1 5.04699 11.3394 8.01483 0.000634851 -0.00540671 -0.000880621
65 2 4.86342 11.4498 6.34207 0.000148834 -0.0132271 0.025438
66 2 4.51529 5.18986 6.85037 -0.0138069 0.0142277 0.00724825
67 1 10.8726 9.38768 6.98423 -0.000134594 0.00163055 0.0109607
68 2 11.7441 9.67257 6.40963 0.00116065 0.0165258 -0.0285307
69 2 11.2336 9.51563 7.98614 0.0140781 0.00771043 0.0232828
70 1 11.2014 13.8038 7.5308 0.00387731 -0.000770077 0.000654085
71 2 10.6883 12.9254 7.46122 0.0225163 0.00207127 -0.0104272
72 2 11.2553 4.21958 8.48745 -0.00584636 -0.0362866 -0.0129004
73 1 9.01781 6.60536 6.42943 -0.00457965 -0.00229626 -0.00224847
74 2 8.38754 6.16201 6.97953 -0.0113372 -0.00801314 -0.00974706
75 2 9.4838 7.05668 7.1199 -0.0106095 -0.0112454 -0.00170454
76 1 11.5235 5.17615 9.91166 0.000392878 -0.00184206 0.00764895
77 2 11.2846 6.03506 9.67791 0.0257674 -0.0032766 -0.00537526
78 2 3.55976 6.7114 9.4155 0.00633025 0.00141925 0.00134111
79 1 12.0096 9.74184 9.49531 0.00560056 -0.00124323 -0.00101496
80 2 12.4643 8.84726 9.61005 0.00181375 -0.0140655 -0.00150863
81 2 5.74615 10.6169 8.30509 0.0278748 0.014485 -0.0177639
82 1 6.60501 4.76718 11.4783 0.00238464 0.00359467 0.000673431
83 2 7.55943 4.73107 11.7371 0.0123051 -0.00303358 0.013955
84 2 6.1628 4.99957 2.46516 0.00583889 0.00728617 -0.0282465
85 1 9.88115 4.41777 2.22489 -0.00897984 0.00168044 0.000402499
86 2 10.4446 4.91142 2.86606 0.0113028 0.0160854 0.0105546
87 2 10.8363 4.83052 10.5774 -0.0121489 -0.00870238 -0.024877
88 1 7.21013 13.3657 6.6228 0.000491125 0.00280095 -0.000278267
89 2 6.2823 13.0095 6.55298 0.0137893 -0.00938034 0.00219687
90 2 7.16453 13.7962 7.46547 -0.00743968 0.00817383 0.00670281
91 1 4.98872 7.80593 5.77329 -0.000958702 -0.00364655 -9.17391e-05
92 2 3.34086 8.85235 5.22379 -0.016123 -0.0172624 -0.00379214
93 2 4.78345 7.22471 6.58277 -0.00325468 0.0105758 -0.00777887
94 1 4.4714 5.75667 7.66069 -0.00402751 0.00289333 0.00486095
95 2 4.59386 5.07284 8.33102 0.0158038 0.0228556 0.0188741
96 2 5.11798 7.1987 5.01241 -0.00510553 0.0150748 -0.0086921
ITEM: TIMESTEP
3
ITEM: NUMBER OF ATOMS
96
ITEM: BOX BOUNDS pp pp pp
2.9236100000000000e+00 1.2773600000000000e+01
4.0306300000000004e+00 1.3880599999999999e+01
2.1372399999999998e+00 1.1987200000000000e+01
ITEM: ATOMS id type x y z vx vy vz
1 1 8.57684 12.1851 4.35803 0.000331828 -0.00285377 0.00333554
2 2 7.79503 11.7075 4.01111 -0.0345204 0.0230685 -0.00167078
3 2 10.0175 13.3523 2.37989 0.0197671 -0.00225457 0.0194694
4 1 3.27488 12.1203 11.8056 -0.000219895 0.00720524 -0.00579112
5 2 12.7286 11.5744 11.1536 0.00474238 0.028681 -0.0230063
6 2 12.5837 12.1468 2.71229 0.00662193 0.0221931 -0.0269131
7 1 12.7716 7.37755 2.88014 0.00469543 0.00277959 -0.00295247
8 2 12.0181 7.1149 3.42671 0.0232539 0.00299757 -0.00757828
9 2 8.27548 8.06512 6.32942 0.00207446 -0.00209396 -0.0272315
10 1 7.55938 8.76084 6.21315 -0.00352027 -0.00713263 -0.000190064
11 2 6.69466 8.31449 5.91862 -0.0116506 -0.0292064 -0.00666715
12 2 7.10179 8.99594 7.72241 -0.02009 -0.011791 -0.0286063
13 1 6.13627 8.27492 2.4551 0.00450999 -0.00135572 -0.000151608
14 2 5.67897 8.21699 11.4242 -0.0135686 -0.0131428 -0.0217844
15 2 5.85722 7.4868 2.89058 -0.0209699 0.00882303 -0.0186143
16 1 8.94134 7.44509 2.45013 0.00225949 -0.00111551 -0.00039571
17 2 9.04358 6.49567 2.35494 0.00649243 -0.0117167 0.00315938
18 2 8.00777 7.55641 2.69524 0.00925557 -0.00078173 -0.0252619
19 1 3.70073 7.3816 10.0907 -0.0107426 -0.00331601 -0.00151237
20 2 3.21122 7.07623 10.8629 0.00334008 -0.00291604 0.00233804
21 2 11.3782 9.91162 10.2904 0.00610707 -0.0169454 0.00266686
22 1 9.89929 9.8275 11.4795 -0.0023774 0.00353167 -0.00535056
23 2 10.028 10.4179 2.45262 0.0162541 0.0072249 0.0347179
24 2 9.41415 9.01409 11.8361 0.0134639 0.00209439 -0.0112608
25 1 12.6825 9.67406 5.16411 0.00303299 0.00137669 0.000412336
26 2 3.47997 10.4014 5.4047 0.0194951 0.0248104 0.0145407
27 2 4.28567 6.35683 3.38878 0.00296508 0.00884089 -0.00972834
28 1 11.2429 5.64618 4.33502 0.00243337 -0.000283706 0.00369681
29 2 11.8317 5.0531 4.86882 -0.0208419 0.00417049 0.0171468
30 2 10.5606 5.96523 4.95289 -0.0168458 0.023741 -0.0145591
31 1 4.54455 11.662 5.38811 0.00670223 0.0012048 0.0116626
32 2 3.70529 13.3103 5.54262 -0.00958142 -0.00336917 -0.00475869
33 2 5.22093 11.3119 4.79088 0.0295336 -0.00265918 -0.00475678
34 1 4.76157 13.3477 9.80748 -0.00196896 0.00324155 -0.00103185
35 2 4.10091 12.9625 10.4521 0.0200912 0.0359689 -0.0355524
36 2 5.18181 4.17749 10.2875 -0.00632628 -0.0105981 0.0196827
37 1 8.17639 11.0441 9.72614 0.00448903 -0.00465512 0.00148253
38 2 8.73291 11.3235 8.92757 -0.00680913 -0.00693103 0.0111613
39 2 8.78232 10.6267 10.47 0.00938516 -0.0117089 -0.00657769
40 1 3.30821 4.36678 5.70312 -0.00840565 -0.00197844 -0.00444229
41 2 4.77 5.22483 4.46561 -0.000596764 -0.0252895 -0.0188569
42 2 12.6248 4.34612 6.53486 -0.00788785 0.00952926 0.00160084
43 1 5.06772 5.86376 3.83146 0.00436403 -0.00279683 -0.00187135
44 2 3.12992 8.24379 3.19412 0.0223504 -0.0160913 -0.00158962
45 2 8.26066 12.5972 5.15186 0.000451653 0.00902069 -0.001375
46 1 9.65806 11.5545 7.41498 -0.00479777 0.000962996 0.00824816
47 2 9.04419 11.888 6.76821 0.0151681 0.0275302 0.0219938
48 2 10.0922 10.5918 6.91617 -0.0300865 0.0632968 0.00295045
49 1 9.24487 7.14128 9.39953 0.0057691 -0.00375125 0.000677552
50 2 8.53009 6.51325 9.17686 -0.0134014 -0.0230116 0.00826232
51 2 9.2467 7.23503 10.344 0.0227738 0.0125121 -0.0117366
52 1 10.9041 11.402 3.52668 0.00218427 0.000993233 -0.00507646
53 2 10.2965 11.9923 3.98959 -0.00679031 -0.00317601 -0.00084895
54 2 11.2754 10.8545 4.27042 0.004284 0.0114404 -0.0193659
55 1 6.09294 11.2539 3.20903 -0.0111129 -0.000141638 -0.0114351
56 2 6.19129 10.328 2.9377 -0.0150798 0.0313746 -0.0118561
57 2 5.22128 11.5541 2.9776 -0.00654875 0.00605407 0.000288303
58 1 6.62691 9.26928 8.60684 -0.00139831 -0.00123164 0.00127156
59 2 5.16762 12.0431 8.69354 0.01619 -0.02224 -0.00874128
60 2 7.30261 9.8642 9.14106 0.031946 0.00415552 -0.0162777
61 1 7.17724 5.64285 8.51449 -8.16443e-05 0.00139016 0.00561774
62 2 6.87863 5.35394 9.39224 -0.0207176 -0.00240377 0.00755516
63 2 6.40335 6.03507 8.14194 0.0242318 0.01542 -0.0264621
64 1 5.04738 11.3366 8.01443 0.000939536 -0.00552405 -0.000732128
65 2 4.8633 11.4434 6.35435 -0.000634201 -0.0122136 0.0232092
66 2 4.50804 5.19775 6.85399 -0.0151856 0.0169369 0.00714799
67 1 10.8727 9.3884 6.98984 0.000492704 0.00131905 0.0115198
68 2 11.7436 9.68047 6.39586 -0.00365787 0.0146511 -0.0257138
69 2 11.2401 9.51932 7.99674 0.0117388 0.00700907 0.0181664
70 1 11.2033 13.8034 7.5311 0.00381116 -0.000951169 0.000527366
71 2 10.6998 12.9269 7.45636 0.0232826 0.00352185 -0.00916817
72 2 11.2524 4.20152 8.48101 -0.00550531 -0.0355727 -0.0120979
73 1 9.01557 6.6042 6.42825 -0.00438422 -0.00237495 -0.00245302
74 2 8.38079 6.15689 6.97482 -0.0154422 -0.0122628 -0.00921643
75 2 9.47993 7.05154 7.11976 -0.00499705 -0.00921325 0.00124072
76 1 11.5237 5.17508 9.91554 0.000430879 -0.00244586 0.00788227
77 2 11.2964 6.03487 9.675 0.0212976 0.00247384 -0.00616727
78 2 3.56306 6.71211 9.41626 0.00674745 0.00111831 0.00151806
79 1 12.0123 9.74119 9.49484 0.00538813 -0.00136979 -0.00085921
80 2 12.4646 8.84144 9.60988 -0.000734205 -0.00904768 0.000740781
81 2 5.75938 10.624 8.29554 0.0251633 0.0132655 -0.0204695
82 1 6.60627 4.76901 11.4787 0.00273832 0.0036986 0.000768297
83 2 7.56449 4.72935 11.7437 0.0076334 -0.00381248 0.0124219
84 2 6.16584 5.00312 2.45059 0.00583921 0.00718014 -0.0290865
85 1 9.87663 4.41871 2.22502 -0.00906686 0.00210392 0.00016828
86 2 10.4502 4.91893 2.87157 0.0105583 0.0135835 0.0108296
87 2 10.8308 4.82693 10.5644 -0.0099039 -0.00559708 -0.0267654
88 1 7.21026 13.367 6.62262 7.67749e-05 0.00253472 -0.000384863
89 2 6.29062 13.005 6.55391 0.0191072 -0.0086266 0.00149763
90 2 7.16124 13.8008 7.46922 -0.00572821 0.0101936 0.0079059
91 1 4.98824 7.8041 5.77332 -0.000941378 -0.00365556 0.00019327
92 2 3.33337 8.84302 5.22232 -0.0138265 -0.0194986 -0.00202851
93 2 4.78211 7.23071 6.57758 -0.00221182 0.0129381 -0.0125747
94 1 4.46942 5.75806 7.6631 -0.00389606 0.00272315 0.00481565
95 2 4.60158 5.08445 8.3411 0.0150958 0.023401 0.0212286
96 2 5.11536 7.20588 5.00811 -0.00538136 0.0133293 -0.00865554
ITEM: TIMESTEP
4
ITEM: NUMBER OF ATOMS
96
ITEM: BOX BOUNDS pp pp pp
2.9236100000000000e+00 1.2773600000000000e+01
4.0306300000000004e+00 1.3880599999999999e+01
2.1372399999999998e+00 1.1987200000000000e+01
ITEM: ATOMS id type x y z vx vy vz
1 1 8.57697 12.1837 4.35968 0.00013764 -0.0029896 0.0032691
2 2 7.77806 11.7193 4.01011 -0.0327198 0.0242695 -0.00217395
3 2 10.0276 13.3504 2.39023 0.0207306 -0.0046257 0.0216266
4 1 3.27492 12.124 11.8027 0.000429495 0.00743748 -0.00597018
5 2 12.73 11.5879 11.142 0.000757155 0.0252761 -0.0235041
6 2 12.5855 12.1573 2.6996 0.000164672 0.0200308 -0.0233364
7 1 2.92401 7.37891 2.87864 0.00484439 0.00265146 -0.00308142
8 2 12.0294 7.11585 3.42317 0.0213344 0.000679225 -0.00615669
9 2 8.27615 8.06391 6.31533 0.000765928 -0.00281752 -0.0290395
10 1 7.55753 8.75733 6.21301 -0.00388695 -0.00694675 -0.000420415
11 2 6.68938 8.29998 5.91559 -0.00909381 -0.0285049 -0.00531154
12 2 7.09157 8.99054 7.70871 -0.0209754 -0.00971065 -0.0256084
13 1 6.13852 8.27429 2.45493 0.00442795 -0.00117456 -0.000608407
14 2 5.6727 8.2104 11.4146 -0.011007 -0.0129472 -0.0160684
15 2 5.84643 7.49077 2.88147 -0.0220976 0.00680773 -0.017457
16 1 8.94245 7.4445 2.44995 0.00222783 -0.00124977 -0.000345617
17 2 9.04695 6.48943 2.35668 0.00693182 -0.0128232 0.00379283
18 2 8.01227 7.55616 2.68242 0.00824319 -0.000135302 -0.0259115
19 1 3.69535 7.37999 10.0899 -0.0107507 -0.00310643 -0.0016231
20 2 3.21288 7.07462 10.8642 0.00319714 -0.00366018 0.00287147
21 2 11.3825 9.90196 10.29 0.0110086 -0.0215 -0.00412149
22 1 9.89807 9.82929 11.4768 -0.00250292 0.00369116 -0.00519514
23 2 10.0364 10.4215 2.46949 0.0172675 0.00645025 0.0318804
24 2 9.42134 9.01564 11.8299 0.0151932 0.00399144 -0.0133086
25 1 12.684 9.67471 5.16422 0.00291197 0.00124387 4.65574e-05
26 2 3.49033 10.4144 5.4121 0.0214806 0.0264925 0.0147856
27 2 4.28738 6.36009 3.38494 0.0041211 0.00396211 -0.00545779
28 1 11.2441 5.64606 4.33686 0.00216966 -0.000168755 0.00365665
29 2 11.8213 5.05523 4.87728 -0.0207989 0.00417126 0.0168905
30 2 10.5522 5.97701 4.94564 -0.0163933 0.0231985 -0.0146238
31 1 4.5479 11.6627 5.39404 0.00673829 0.00131431 0.0120233
32 2 3.69982 13.3091 5.54069 -0.0122955 -0.00153908 -0.00291195
33 2 5.23639 11.3104 4.78805 0.0314998 -0.00306595 -0.00577648
34 1 4.76049 13.3493 9.80692 -0.00225102 0.00310194 -0.00128187
35 2 4.11143 12.9806 10.4339 0.0204861 0.0354137 -0.0362659
36 2 5.17998 4.17327 10.2983 -0.000730246 -0.00611563 0.0236158
37 1 8.1787 11.0418 9.72694 0.00474826 -0.00450624 0.00170907
38 2 8.72963 11.3193 8.9339 -0.00605627 -0.00931248 0.013741
39 2 8.78678 10.6212 10.4653 0.00860609 -0.0102518 -0.0119212
40 1 3.30409 4.36575 5.70086 -0.00807705 -0.00211482 -0.00457214
41 2 4.7684 5.21205 4.4563 -0.00568708 -0.025565 -0.0186141
42 2 12.6206 4.35021 6.53594 -0.00865252 0.00678305 0.00252663
43 1 5.06993 5.86245 3.83046 0.00448525 -0.00245996 -0.00215257
44 2 3.14123 8.23663 3.19369 0.0229895 -0.0120639 5.2369e-05
45 2 8.26052 12.6024 5.15196 -0.000832507 0.0116076 0.0016518
46 1 9.65568 11.5549 7.41909 -0.00471335 0.000915716 0.00820575
47 2 9.05155 11.9017 6.77918 0.0136385 0.0278983 0.0213816
48 2 10.0761 10.6256 6.91852 -0.0339336 0.0703413 0.00628843
49 1 9.24781 7.13942 9.39983 0.00597021 -0.00375178 0.000492373
50 2 8.52325 6.50182 9.18094 -0.0132867 -0.0220741 0.00834188
51 2 9.25797 7.24155 10.3388 0.022193 0.0135121 -0.00893531
52 1 10.9052 11.4025 3.52418 0.00250416 0.000852794 -0.00495037
53 2 10.2922 11.9913 3.98924 -0.0103038 -0.000890885 -0.000618473
54 2 11.2776 10.8603 4.25978 0.00465745 0.011014 -0.0226814
55 1 6.08745 11.2538 3.20335 -0.0108465 -7.51012e-05 -0.0112292
56 2 6.183 10.3437 2.93153 -0.0179472 0.0303755 -0.0131795
57 2 5.2175 11.5567 2.97696 -0.00885193 0.00449269 -0.00296416
58 1 6.6262 9.26868 8.6075 -0.00141947 -0.00114606 0.00133717
59 2 5.17515 12.0324 8.68903 0.0138503 -0.0200207 -0.00896509
60 2 7.31838 9.86552 9.13244 0.030691 0.000728341 -0.0184607
61 1 7.17723 5.64348 8.51735 3.70801e-05 0.00113457 0.00581015
62 2 6.86819 5.35261 9.39617 -0.0211 -0.00270696 0.00778591
63 2 6.41438 6.04334 8.12837 0.0198783 0.0175525 -0.0275554
64 1 5.04793 11.3338 8.0141 0.00124598 -0.00568001 -0.000607105
65 2 4.86279 11.4375 6.36527 -0.00134718 -0.0110221 0.0200805
66 2 4.50011 5.2068 6.85752 -0.0165089 0.0188102 0.0068438
67 1 10.8731 9.389 6.99575 0.00117029 0.00117468 0.0120902
68 2 11.7404 9.68722 6.38392 -0.00981672 0.0120173 -0.0213822
69 2 11.2453 9.52263 8.0043 0.00909014 0.00619146 0.0112936
70 1 11.2052 13.8029 7.53132 0.0037561 -0.00111897 0.000329442
71 2 10.7115 12.9289 7.45205 0.0237536 0.00436496 -0.00828776
72 2 11.2497 4.18401 8.47535 -0.00483716 -0.0341114 -0.00980513
73 1 9.01343 6.60299 6.42698 -0.00421765 -0.0024826 -0.00264056
74 2 8.3721 6.14974 6.97031 -0.0187916 -0.0159118 -0.00904329
75 2 9.47881 7.04746 7.12114 0.000221318 -0.00728374 0.0042145
76 1 11.5239 5.17371 9.91954 0.000510108 -0.00302911 0.00807107
77 2 11.3059 6.03753 9.67174 0.0167723 0.0078728 -0.0067378
78 2 3.56651 6.71252 9.41702 0.00695926 0.000266735 0.00131333
79 1 12.015 9.74047 9.49445 0.00518009 -0.00152389 -0.00069326
80 2 12.4636 8.83821 9.61079 -0.00320317 -0.00387273 0.00276896
81 2 5.77131 10.6302 8.28462 0.0227226 0.0111343 -0.0231504