ITEM: TIMESTEP
0
ITEM: NUMBER OF ATOMS
96
ITEM: BOX BOUNDS pp pp pp
2.9236100000000000e+00 1.2773600000000000e+01
4.0306300000000004e+00 1.3880599999999999e+01
2.1372399999999998e+00 1.1987200000000000e+01
ITEM: ATOMS id type x y z vx vy vz
1 1 8.57608 12.1906 4.35124 0.000191932 -0.00275633 0.00331996
2 2 7.86222 11.6624 4.01027 -0.0293494 0.0235763 0.0031455
3 2 9.98392 13.3413 2.35217 0.0133839 0.0138208 0.0076943
4 1 3.27725 12.1067 11.8169 -0.00175711 0.00651534 -0.00564743
5 2 12.7056 11.5052 11.1991 0.0161312 0.0385672 -0.0237512
6 2 12.5532 12.0943 2.77066 0.0193697 0.029639 -0.026528
7 1 12.7623 7.37188 2.88612 0.00481448 0.00267372 -0.00327346
8 2 11.9725 7.1015 3.44134 0.0185702 0.00952245 -0.0044772
9 2 8.26413 8.06721 6.37502 0.00948871 7.63334e-05 -0.0179825
10 1 7.56552 8.7761 6.2129 -0.00288056 -0.00823507 0.000319293
11 2 6.72173 8.37091 5.93521 -0.0121824 -0.0252433 -0.00883752
12 2 7.14121 9.02544 7.78241 -0.0206766 -0.0165003 -0.0273215
13 1 6.12749 8.27837 2.45476 0.00401882 -0.00205974 -8.11609e-05
14 2 5.70788 8.23996 11.4779 -0.0112349 -0.00824604 -0.0251678
15 2 5.89427 7.46533 2.92685 -0.016086 0.0104648 -0.0152805
16 1 8.93623 7.44712 2.45128 0.00301348 -0.00101039 -0.000815731
17 2 9.03284 6.5099 2.351 0.0041751 -0.0012385 0.000762163
18 2 7.99198 7.55968 2.74109 0.00394556 -0.0020965 -0.0196997
19 1 3.72195 7.38869 10.0932 -0.010374 -0.00360286 -0.00102115
20 2 3.20602 7.08117 10.8592 0.000911754 -0.00296004 0.00184306
21 2 11.3853 9.92594 10.2599 -0.0113025 0.00225395 0.0248842
22 1 9.90329 9.82043 11.49 -0.00155766 0.00378331 -0.00478013
23 2 10.0015 10.4093 2.38505 0.00952165 -0.00231366 0.0274196
24 2 9.39519 9.01822 11.8498 0.00541345 -0.00604598 -0.0026401
25 1 12.6756 9.67042 5.1617 0.00391805 0.00242528 0.00198558
26 2 3.45356 10.3699 5.37973 0.00597387 0.00293734 0.00962298
27 2 4.2797 6.32428 3.42143 0.00543323 0.0211021 -0.0205534
28 1 11.2375 5.64694 4.32759 0.0028293 -0.00037291 0.00366986
29 2 11.8719 5.04739 4.83062 -0.0186202 0.000513643 0.0221111
30 2 10.5922 5.91811 4.98383 -0.0132727 0.0224419 -0.017121
31 1 4.53073 11.6605 5.36658 0.00729925 0.000167297 0.00982908
32 2 3.71481 13.3227 5.55783 -0.000905828 -0.00766966 -0.00939799
33 2 5.17973 11.3109 4.78589 0.00878644 0.0050741 0.0129436
34 1 4.76355 13.3402 9.80948 0.000157702 0.00431948 -0.001332
35 2 4.08012 12.9011 10.5082 -0.0047368 0.0210779 -0.0168562
36 2 5.21155 4.21022 10.264 -0.0202892 -0.0177934 0.00480384
37 1 8.16873 11.054 9.72381 0.00313726 -0.00528706 0.000993973
38 2 8.74646 11.3258 8.91941 -0.00572418 0.00484611 -0.00367625
39 2 8.75961 10.6567 10.4594 0.0129259 -0.0178793 0.0165905
40 1 3.32628 4.37023 5.71142 -0.0095877 -0.00152216 -0.00389203
41 2 4.75097 5.27122 4.50665 0.0187229 -0.0203947 -0.0225362
42 2 12.6351 4.31735 6.53734 -0.00173773 0.0184077 -0.00437176
43 1 5.05982 5.87054 3.83415 0.00340556 -0.00383843 -0.000937298
44 2 3.08612 8.28302 3.20041 0.0222275 -0.0186359 -0.00312181
45 2 8.25303 12.5889 5.16618 0.00738451 0.00032271 -0.0114026
46 1 9.66762 11.5525 7.398 -0.00460916 0.000940962 0.0088428
47 2 9.0159 11.8298 6.72848 0.0103239 0.0316689 0.0152805
48 2 10.1293 10.5089 6.92433 -0.00484997 0.0150257 -0.0108861
49 1 9.23467 7.14929 9.39808 0.00424415 -0.00442512 0.000473687
50 2 8.54835 6.55467 9.15632 -0.00168381 -0.0155217 0.0139238
51 2 9.2002 7.21465 10.3729 0.023211 0.00769158 -0.0141058
52 1 10.9012 11.3993 3.53774 0.000671907 0.00176719 -0.00608731
53 2 10.2966 12.0078 3.99245 0.00575993 -0.0114369 -0.00183938
54 2 11.2653 10.8348 4.29042 0.00662253 0.00695143 0.000409517
55 1 6.11603 11.2535 3.23225 -0.0118351 0.000879174 -0.0115994
56 2 6.20881 10.2771 2.96072 -0.00243966 0.0141117 -0.0127885
57 2 5.23024 11.5345 2.9659 -0.00485857 0.0137962 0.0104115
58 1 6.62915 9.27186 8.60482 -0.000648005 -0.00125341 0.000642486
59 2 5.12766 12.088 8.70583 0.0227387 -0.0192657 -0.00222382
60 2 7.23965 9.84793 9.16968 0.0287391 0.00956947 -0.0146924
61 1 7.17761 5.6392 8.50381 -7.95353e-05 0.00214854 0.00516916
62 2 6.91973 5.3551 9.38281 -0.0210369 0.00202666 0.00046809
63 2 6.34054 6.01258 8.18854 0.0357437 0.00796398 -0.0200738
64 1 5.04668 11.3473 8.01654 -0.00017788 -0.00527374 -0.0013928
65 2 4.86154 11.4712 6.30216 0.00212788 -0.0150247 0.0258354
66 2 4.53282 5.1767 6.83971 -0.00957336 0.00247164 0.0068822
67 1 10.874 9.38409 6.96896 -0.00149889 0.00335516 0.00945254
68 2 11.7366 9.64611 6.45322 0.00580005 0.0173522 -0.0263302
69 2 11.2083 9.50256 7.94598 0.0190928 0.0097908 0.0267185
70 1 11.1954 13.8046 7.52976 0.00410507 -0.000234603 0.000605415
71 2 10.6571 12.9271 7.48061 0.0185766 -0.00517905 -0.0157757
72 2 11.2637 4.27319 8.50402 -0.00488608 -0.0338333 -0.0068384
73 1 9.02518 6.60873 6.43246 -0.00526332 -0.00224685 -0.0019454
74 2 8.39529 6.16441 6.99549 -7.04252e-05 0.00401138 -0.011077
75 2 9.51133 7.07675 7.12727 -0.0244682 -0.0141289 -0.00633612
76 1 11.5229 5.17769 9.90078 0.000539586 -0.000381123 0.00684115
77 2 11.2368 6.05157 9.68397 0.0368858 -0.0167972 -0.00276293
78 2 3.55191 6.71033 9.41505 0.00373516 -0.000881245 -0.00128664
79 1 12.0008 9.74357 9.49706 0.00610799 -0.00116364 -0.00119927
80 2 12.4565 8.87762 9.61787 0.00763719 -0.0244865 -0.00911382
81 2 5.69767 10.5954 8.32591 0.0368375 0.012609 -0.0103402
82 1 6.60185 4.76211 11.4778 0.00206519 0.0031214 -5.98426e-05
83 2 7.53324 4.73372 11.7137 0.0202186 -0.000407815 0.0164703
84 2 6.15679 4.987 2.50021 0.00094661 0.0100856 -0.0159959
85 1 9.89413 4.41614 2.22341 -0.00818251 0.000579485 0.00174701
86 2 10.4298 4.8841 2.8551 0.0065355 0.0189464 0.00173744
87 2 10.8607 4.84977 10.609 -0.0207358 -0.0161767 -0.0167768
88 1 7.20839 13.3608 6.62283 0.00180613 0.00372817 0.000284838
89 2 6.27487 13.0256 6.5483 -0.0037028 -0.01197 0.00391193
90 2 7.17943 13.7895 7.46012 -0.0122529 0.000395237 -0.00025173
91 1 4.99015 7.81111 5.77414 -0.000929233 -0.0031306 -0.00103113
92 2 3.36976 8.87047 5.23287 -0.0217269 -0.00612162 -0.00794361
93 2 4.79105 7.21663 6.58205 -0.00685264 -0.000696293 0.00868567
94 1 4.47775 5.75175 7.65321 -0.00444963 0.00376389 0.00510936
95 2 4.56837 5.04099 8.30901 0.0183061 0.0188825 0.0102338
96 2 5.12503 7.17432 5.02619 -0.00434497 0.0161148 -0.00986691
ITEM: TIMESTEP
1
ITEM: NUMBER OF ATOMS
96
ITEM: BOX BOUNDS pp pp pp
2.9236100000000000e+00 1.2773600000000000e+01
4.0306300000000004e+00 1.3880599999999999e+01
2.1372399999999998e+00 1.1987200000000000e+01
ITEM: ATOMS id type x y z vx vy vz
1 1 8.57622 12.1892 4.35293 0.000330017 -0.00269608 0.00339672
2 2 7.84674 11.6739 4.01147 -0.0322025 0.022741 0.00167391
3 2 9.99104 13.3473 2.35681 0.0151177 0.00972298 0.0108481
4 1 3.2764 12.11 11.8141 -0.00158245 0.00660807 -0.00559308
5 2 12.7134 11.5243 11.1875 0.0144233 0.0371687 -0.0229048
6 2 12.5629 12.1088 2.75655 0.0184988 0.0281591 -0.0291205
7 1 12.7647 7.37326 2.88454 0.00467706 0.00280812 -0.003071
8 2 11.9827 7.106 3.43851 0.0215654 0.00833051 -0.00650309
9 2 8.26842 8.06707 6.36541 0.0076141 -0.000557974 -0.0204415
10 1 7.56408 8.77207 6.21305 -0.00291148 -0.00790594 0.000251162
11 2 6.71512 8.35773 5.93074 -0.0136974 -0.0271934 -0.00884435
12 2 7.13113 9.01728 7.76801 -0.0198479 -0.0159294 -0.0296597
13 1 6.12957 8.27738 2.45481 0.00427104 -0.001904 0.000195252
14 2 5.70143 8.23529 11.4644 -0.0138989 -0.0102313 -0.0277859
15 2 5.88593 7.47083 2.91862 -0.0172961 0.0111678 -0.0172798
16 1 8.93767 7.44662 2.45091 0.00274603 -0.000996728 -0.000683847
17 2 9.03507 6.50848 2.35154 0.00477492 -0.00439 0.00138696
18 2 7.99467 7.55865 2.73075 0.00650629 -0.00196363 -0.0215196
19 1 3.71672 7.38688 10.0927 -0.0105141 -0.00361438 -0.00114322
20 2 3.20678 7.07985 10.8601 0.00199316 -0.00248458 0.00172744
21 2 11.3803 9.926 10.2716 -0.00815853 -0.00224726 0.021066
22 1 9.90245 9.82227 11.4875 -0.00178586 0.00360217 -0.005097
23 2 10.0068 10.4093 2.40006 0.011502 0.00190108 0.0318866
24 2 9.39839 9.01565 11.848 0.00742185 -0.00415173 -0.00466236
25 1 12.6775 9.67154 5.1626 0.0036852 0.00208242 0.00160395
26 2 3.45746 10.3732 5.38494 0.0096839 0.0101072 0.0111824
27 2 4.28185 6.33453 3.4114 0.00357504 0.0193896 -0.0190959
28 1 11.2389 5.64674 4.32944 0.00281962 -0.000398231 0.00370379
29 2 11.8623 5.04803 4.84121 -0.0195133 0.0019241 0.0203705
30 2 10.5851 5.92955 4.97553 -0.0148401 0.0232106 -0.0161343
31 1 4.53432 11.6607 5.37161 0.00707217 0.000490725 0.0102893
32 2 3.714 13.3189 5.55323 -0.002545 -0.00732272 -0.00879829
33 2 5.18576 11.3128 4.79086 0.0152074 0.00255028 0.00712343
34 1 4.76348 13.3423 9.80889 -0.000437456 0.00405328 -0.001081
35 2 4.08002 12.9132 10.4981 0.00390237 0.0267767 -0.023134
36 2 5.20172 4.20098 10.2671 -0.0184279 -0.0182974 0.00791363
37 1 8.17038 11.0514 9.72431 0.00347997 -0.00511373 0.00104244
38 2 8.74339 11.3275 8.91854 -0.00646489 0.00183383 0.000252035
39 2 8.76598 10.648 10.4665 0.0123334 -0.0166221 0.0112911
40 1 3.32154 4.36945 5.70945 -0.00933509 -0.00161028 -0.00400802
41 2 4.75934 5.26065 4.49561 0.0144454 -0.0218898 -0.0215293
42 2 12.6338 4.32616 6.53553 -0.00360508 0.0166329 -0.00281117
43 1 5.0616 5.86866 3.83365 0.00370437 -0.0036613 -0.00110007
44 2 3.09712 8.27311 3.19869 0.0218681 -0.0202733 -0.00352076
45 2 8.25629 12.5894 5.16076 0.00559876 0.00191732 -0.00981058
46 1 9.66528 11.553 7.40237 -0.00472675 0.000962858 0.00864162
47 2 9.02176 11.8453 6.73689 0.0128252 0.0302241 0.0181111
48 2 10.125 10.5201 6.9197 -0.0120566 0.0291383 -0.00757672
49 1 9.23691 7.14714 9.39838 0.00471069 -0.00417661 0.000674402
50 2 8.54633 6.54604 9.16269 -0.00608382 -0.0187187 0.0117282
51 2 9.21186 7.21882 10.3655 0.0233485 0.00897101 -0.0151027
52 1 10.9016 11.4001 3.53477 0.00105489 0.00158335 -0.00579112
53 2 10.2989 12.0024 3.99155 0.00315111 -0.00990148 -0.00170474
54 2 11.2684 10.8387 4.28932 0.00568691 0.0086591 -0.00488953
55 1 6.11013 11.2538 3.22643 -0.0117301 0.000468982 -0.011647
56 2 6.20684 10.286 2.95462 -0.00553273 0.020907 -0.0117972
57 2 5.22811 11.5409 2.97065 -0.00405548 0.0117855 0.008392
58 1 6.62875 9.27122 8.6052 -0.00093147 -0.00129741 0.00084904
59 2 5.13881 12.0777 8.70414 0.0216415 -0.0216443 -0.00443784
60 2 7.25456 9.85279 9.16263 0.0306251 0.00947423 -0.0139063
61 1 7.17753 5.64025 8.50641 -0.000196084 0.00201577 0.00522733
62 2 6.90935 5.35573 9.38366 -0.0206191 0.000561298 0.00285689
63 2 6.35826 6.01683 8.17814 0.0344401 0.00929728 -0.0216291
64 1 5.04665 11.3447 8.01588 6.61174e-05 -0.00528486 -0.00122237
65 2 4.8625 11.4638 6.31543 0.00160461 -0.0146386 0.0267552
66 2 4.52769 5.17906 6.84318 -0.0109763 0.00681881 0.00703518
67 1 10.8733 9.38559 6.9738 -0.00113799 0.00267308 0.00992266
68 2 11.7397 9.65499 6.43922 0.00589541 0.0178347 -0.028828
69 2 11.2175 9.50726 7.95975 0.0177035 0.00904598 0.0274745
70 1 11.1974 13.8044 7.53009 0.00402825 -0.000404131 0.000686008
71 2 10.6668 12.9253 7.47322 0.0201448 -0.00236708 -0.0138187
72 2 11.2611 4.2558 8.49965 -0.00552103 -0.0353811 -0.0101046
73 1 9.02261 6.60761 6.4315 -0.00502875 -0.00223409 -0.00195966
74 2 8.3946 6.16562 6.98993 -0.00317145 0.000496549 -0.0109223
75 2 9.49987 7.06961 7.12409 -0.0207916 -0.0139631 -0.0058116
76 1 11.5231 5.17742 9.90427 0.000446576 -0.000765616 0.00711349
77 2 11.2546 6.04383 9.68239 0.0337582 -0.0134335 -0.00358724
78 2 3.55407 6.71025 9.41472 0.00482019 0.000360496 -0.000125102
79 1 12.0038 9.743 9.49645 0.00597538 -0.0011297 -0.00120863
80 2 12.4601 8.8658 9.61398 0.0062192 -0.0221204 -0.00648366
81 2 5.71535 10.6022 8.32021 0.0338371 0.0140666 -0.0126148
82 1 6.60286 4.76372 11.4778 0.00203975 0.00329991 0.000232909
83 2 7.54323 4.73328 11.7219 0.0189398 -0.00133637 0.0160572
84 2 6.15789 4.9917 2.49075 0.00321082 0.00884029 -0.0213727
85 1 9.88995 4.4165 2.22414 -0.00852381 0.000889094 0.00120768
86 2 10.4338 4.89361 2.85715 0.0091811 0.018742 0.0059199
87 2 10.8511 4.84212 10.5999 -0.0177352 -0.0141357 -0.0197216
88 1 7.20919 13.3626 6.62292 0.00138553 0.00341492 6.95573e-05
89 2 6.27437 13.0198 6.55014 0.00195688 -0.0111852 0.00342094
90 2 7.17366 13.7904 7.46067 -0.0107436 0.00313859 0.00239381
91 1 4.98968 7.80948 5.7737 -0.000947497 -0.00336778 -0.000728575
92 2 3.35919 8.86639 5.22917 -0.0202673 -0.0101844 -0.00676651
93 2 4.7879 7.21736 6.58511 -0.00568921 0.00350894 0.00331026
94 1 4.47556 5.75354 7.65575 -0.00430345 0.00342227 0.00502505
95 2 4.57729 5.05091 8.31487 0.0174036 0.0206079 0.0132185
96 2 5.12281 7.18256 5.02137 -0.00457008 0.0164811 -0.00938801
ITEM: TIMESTEP
2
ITEM: NUMBER OF ATOMS
96
ITEM: BOX BOUNDS pp pp pp
2.9236100000000000e+00 1.2773600000000000e+01
4.0306300000000004e+00 1.3880599999999999e+01
2.1372399999999998e+00 1.1987200000000000e+01
ITEM: ATOMS id type x y z vx vy vz
1 1 8.57641 12.1879 4.35464 0.000413206 -0.00269492 0.00341706
2 2 7.83002 11.6851 4.01194 -0.0341648 0.0223104 0.000307576
3 2 9.99904 13.351 2.36302 0.0168327 0.00534822 0.0139466
4 1 3.27567 12.1133 11.8113 -0.00125568 0.00676799 -0.00559813
5 2 12.72 11.5424 11.1762 0.0118188 0.0349033 -0.0225374
6 2 12.5717 12.1225 2.74154 0.0160217 0.0263483 -0.030042
7 1 12.767 7.37469 2.88305 0.00460871 0.002869 -0.00294481
8 2 11.9941 7.10983 3.43484 0.0234137 0.00684997 -0.00775743
9 2 8.27174 8.06665 6.35458 0.00565243 -0.00106523 -0.0228527
10 1 7.56261 8.76819 6.21315 -0.00302729 -0.00761135 0.000145539
11 2 6.70803 8.34372 5.92637 -0.0140852 -0.0285425 -0.00847806
12 2 7.12136 9.00951 7.75275 -0.0194746 -0.0149535 -0.0306995
13 1 6.13176 8.27647 2.45496 0.00443713 -0.00173037 0.000272303
14 2 5.69398 8.22973 11.4501 -0.0151594 -0.0117521 -0.0280004
15 2 5.87697 7.4765 2.90957 -0.0185259 0.0111145 -0.0185368
16 1 8.93898 7.44612 2.4506 0.00252385 -0.000999576 -0.000566947
17 2 9.03761 6.50551 2.35239 0.00538276 -0.00733442 0.00197725
18 2 7.99849 7.55772 2.71957 0.0083389 -0.00170349 -0.0230711
19 1 3.71144 7.38508 10.0921 -0.0106243 -0.00357219 -0.00126828
20 2 3.20801 7.07869 10.8609 0.00276347 -0.00231153 0.00175743
21 2 11.3771 9.92369 10.281 -0.00391648 -0.00709832 0.0157665
22 1 9.9015 9.82403 11.4849 -0.0020071 0.0034912 -0.00530391
23 2 10.013 10.4112 2.41694 0.0133278 0.00497433 0.0347162
24 2 9.40261 9.01407 11.8451 0.0094892 -0.00209864 -0.00683803
25 1 12.6793 9.6725 5.1633 0.00344046 0.0017924 0.00120588
26 2 3.46324 10.38 5.39091 0.0133687 0.0163879 0.012619
27 2 4.28328 6.34367 3.40233 0.00256345 0.0167163 -0.0167276
28 1 11.2403 5.64654 4.33129 0.00275607 -0.000395292 0.0037199
29 2 11.8524 5.04931 4.85099 -0.020199 0.00303436 0.0189183
30 2 10.5774 5.94132 4.9677 -0.0160235 0.0237195 -0.015335
31 1 4.5378 11.661 5.37687 0.00688176 0.000782963 0.0107691
32 2 3.71227 13.3154 5.54903 -0.00459714 -0.00641482 -0.00778269
33 2 5.19494 11.3135 4.79301 0.0211007 0.000274928 0.00194091
34 1 4.76311 13.3443 9.8084 -0.00101874 0.00375912 -0.000936142
35 2 4.08402 12.9279 10.4851 0.0113215 0.0314046 -0.0286326
36 2 5.19312 4.19192 10.2719 -0.0154105 -0.0171178 0.0115553
37 1 8.17221 11.0489 9.72485 0.00383435 -0.00495438 0.00114306
38 2 8.74 11.3276 8.91966 -0.00694628 -0.00122506 0.00419295
39 2 8.77194 10.6401 10.4707 0.0114181 -0.0150563 0.00539575
40 1 3.31694 4.36862 5.70741 -0.00904622 -0.00171885 -0.00414757
41 2 4.76542 5.24933 4.48512 0.00966172 -0.0233117 -0.0204579
42 2 12.6315 4.33398 6.53453 -0.00530823 0.0145194 -0.00119125
43 1 5.06352 5.86688 3.83305 0.00397056 -0.00341792 -0.00132346
44 2 3.10799 8.26275 3.19689 0.0217574 -0.0203912 -0.00341459
45 2 8.25863 12.5908 5.15637 0.00377706 0.00399965 -0.0074206
46 1 9.66289 11.5535 7.40664 -0.00480279 0.000981595 0.00847061
47 2 9.02873 11.86 6.74659 0.0146209 0.028904 0.0202931
48 2 10.1172 10.538 6.91675 -0.0188518 0.0421904 -0.00413249
49 1 9.23938 7.14511 9.39875 0.00513158 -0.00397101 0.000776642
50 2 8.54227 6.53595 9.16805 -0.00968041 -0.0212053 0.00998495
51 2 9.22355 7.22362 10.3578 0.0233359 0.0102169 -0.0149887
52 1 10.9023 11.4009 3.53195 0.00144565 0.00137901 -0.00551147
53 2 10.2998 11.9979 3.99075 0.000103635 -0.0078923 -0.00146003
54 2 11.271 10.8435 4.28553 0.00490165 0.0101091 -0.0101767
55 1 6.1043 11.254 3.2206 -0.0115686 0.000145798 -0.0116408
56 2 6.20328 10.298 2.94892 -0.0087576 0.0263565 -0.0112358
57 2 5.22618 11.5463 2.97429 -0.00406151 0.00976198 0.00601811
58 1 6.62822 9.27056 8.60567 -0.00115474 -0.00130922 0.00102606
59 2 5.1493 12.0664 8.70139 0.0201531 -0.0230225 -0.00636711
60 2 7.27028 9.8574 9.15577 0.0318692 0.00857111 -0.0139085
61 1 7.17741 5.64122 8.50904 -0.000222753 0.00184124 0.0053207
62 2 6.89911 5.35566 9.38567 -0.0204402 -0.000715769 0.00495774
63 2 6.37498 6.02188 8.16691 0.0318916 0.0110884 -0.0233082
64 1 5.04675 11.342 8.01532 0.000340382 -0.00532777 -0.0010473
65 2 4.86314 11.4566 6.32892 0.000921564 -0.014039 0.0266354
66 2 4.52184 5.18352 6.84675 -0.0123957 0.0108012 0.00718677
67 1 10.8729 9.38676 6.97888 -0.000682591 0.00208958 0.010426
68 2 11.7425 9.66394 6.42439 0.00437197 0.0175824 -0.0295909
69 2 11.226 9.51161 7.97345 0.0160586 0.0083653 0.0263896
70 1 11.1994 13.8042 7.53045 0.00395046 -0.000585774 0.000705659
71 2 10.6772 12.9247 7.46679 0.0214698 8.91682e-05 -0.0120054
72 2 11.2582 4.23781 8.49392 -0.00584763 -0.0362168 -0.0121971
73 1 9.02015 6.6065 6.4305 -0.00479748 -0.00224952 -0.00207036
74 2 8.39212 6.16491 6.98457 -0.00705825 -0.00361364 -0.0104026
75 2 9.49054 7.06279 7.12146 -0.0160675 -0.012934 -0.00419456
76 1 11.5233 5.17692 9.90789 0.000397388 -0.00126597 0.00738755
77 2 11.2706 6.03814 9.68038 0.0299906 -0.00877279 -0.00448211
78 2 3.55673 6.71069 9.41492 0.00568888 0.00115047 0.000773776
79 1 12.0068 9.74244 9.49585 0.00580114 -0.00115887 -0.00113898
80 2 12.4627 8.8555 9.61139 0.00420957 -0.0185457 -0.00393231
81 2 5.73151 10.6095 8.3133 0.030801 0.0147381 -0.0151173
82 1 6.60389 4.76541 11.478 0.00214765 0.00345985 0.000486516
83 2 7.55218 4.73238 11.7298 0.0162004 -0.00221018 0.0151992
84 2 6.16 4.99584 2.47884 0.00490989 0.00787044 -0.0255792
85 1 9.88561 4.41703 2.22462 -0.00879495 0.00126492 0.00075321
86 2 10.439 4.90284 2.86102 0.0108214 0.01781 0.00890471
87 2 10.843 4.83563 10.5893 -0.0148127 -0.0115989 -0.0224799
88 1 7.20978 13.3642 6.6229 0.000937207 0.0030999 -0.000123073
89 2 6.27683 13.0144 6.55172 0.0079311 -0.0102789 0.00284383
90 2 7.16869 13.7926 7.46251 -0.00912513 0.0057813 0.00479821
91 1 4.9892 7.80774 5.77341 -0.000959096 -0.00354609 -0.000407289
92 2 3.34949 8.86029 5.2261 -0.0183332 -0.0140348 -0.00537876
93 2 4.78536 7.22014 6.58536 -0.00445126 0.00735489 -0.00233562
94 1 4.47345 5.75517 7.65824 -0.00416298 0.00312882 0.00493641
95 2 4.58577 5.0616 8.32223 0.0165696 0.0219312 0.0161506
96 2 5.12046 7.1908 5.0168 -0.00483007 0.0161384 -0.00895911
ITEM: TIMESTEP
3
ITEM: NUMBER OF ATOMS
96
ITEM: BOX BOUNDS pp pp pp
2.9236100000000000e+00 1.2773600000000000e+01
4.0306300000000004e+00 1.3880599999999999e+01
2.1372399999999998e+00 1.1987200000000000e+01
ITEM: ATOMS id type x y z vx vy vz
1 1 8.57663 12.1865 4.35634 0.000421194 -0.00275115 0.0033907
2 2 7.81257 11.6962 4.01178 -0.0349886 0.0224042 -0.000834601
3 2 10.0079 13.3526 2.37075 0.0184231 0.00120693 0.0168638
4 1 3.27514 12.1167 11.8085 -0.000793178 0.00697441 -0.00566484
5 2 12.7252 11.5592 11.165 0.00851614 0.0319886 -0.0226119
6 2 12.5789 12.1351 2.7265 0.0120061 0.0243256 -0.0292598
7 1 12.7693 7.37613 2.8816 0.00461501 0.00285697 -0.00290472
8 2 12.0061 7.11285 3.43075 0.0239824 0.00506888 -0.00812761
9 2 8.27408 8.066 6.34256 0.00373546 -0.00152891 -0.0251537
10 1 7.56105 8.76446 6.21319 -0.00323102 -0.00735365 -1.04348e-06
11 2 6.70104 8.32919 5.92227 -0.0133679 -0.0292229 -0.00774127
12 2 7.11166 9.00233 7.73731 -0.0195668 -0.0135632 -0.0303446
13 1 6.13401 8.27565 2.45509 0.00451535 -0.00154469 0.000150891
14 2 5.68627 8.22354 11.4364 -0.0150066 -0.0127362 -0.0258939
15 2 5.8674 7.48195 2.90009 -0.0197616 0.0103078 -0.0189872
16 1 8.94019 7.44562 2.45034 0.0023591 -0.00103488 -0.000469859
17 2 9.04046 6.50115 2.35352 0.0059659 -0.00984144 0.00256014
18 2 8.00301 7.55695 2.70768 0.00928433 -0.00130896 -0.024321
19 1 3.7061 7.38331 10.0914 -0.0107012 -0.00347272 -0.00139251
20 2 3.20955 7.07753 10.8618 0.00320971 -0.00245609 0.001958
21 2 11.3764 9.9189 10.2874 0.000990357 -0.0120727 0.00946112
22 1 9.90045 9.82576 11.4822 -0.00220836 0.00346535 -0.00538907
23 2 10.0201 10.4143 2.43478 0.0149295 0.0067564 0.0356841
24 2 9.40788 9.01355 11.8412 0.0115328 2.14655e-05 -0.00906985
25 1 12.6809 9.67333 5.16381 0.00321477 0.00155794 0.000803898
26 2 3.47083 10.3896 5.39756 0.0167233 0.0213806 0.0137818
27 2 4.28441 6.35124 3.39467 0.00239141 0.0131549 -0.0135522
28 1 11.2417 5.64635 4.33316 0.00262904 -0.000358584 0.00371778
29 2 11.8421 5.05107 4.86013 -0.0206467 0.00379321 0.0178269
30 2 10.5691 5.95327 4.9602 -0.0167152 0.0239094 -0.0147968
31 1 4.5412 11.6615 5.38237 0.00675268 0.00102553 0.0112367
32 2 3.70941 13.3125 5.54544 -0.00697871 -0.00504677 -0.00641034
33 2 5.20686 11.3131 4.7928 0.0259975 -0.00151801 -0.00213178
34 1 4.76246 13.3461 9.80795 -0.00154418 0.00347448 -0.000916154
35 2 4.09135 12.9446 10.4695 0.0169018 0.0345723 -0.0329082
36 2 5.18631 4.18386 10.2787 -0.0113146 -0.0144332 0.0155596
37 1 8.17422 11.0464 9.72546 0.00417778 -0.00480317 0.00129147
38 2 8.73644 11.3263 8.92273 -0.00708538 -0.00419151 0.0079053
39 2 8.7774 10.633 10.4719 0.0103758 -0.0133631 -0.000686586
40 1 3.3125 4.36773 5.7053 -0.0087325 -0.00184393 -0.00429667
41 2 4.769 5.23734 4.47516 0.00458096 -0.0244962 -0.0195123
42 2 12.6284 4.34068 6.53433 -0.0067566 0.0121296 0.000323825
43 1 5.06557 5.86524 3.83233 0.00419233 -0.00312333 -0.00158778
44 2 3.11887 8.25272 3.19528 0.0219208 -0.018959 -0.00276707
45 2 8.26006 12.5934 5.15334 0.00202391 0.0064265 -0.00450151
46 1 9.66048 11.554 7.41084 -0.00482744 0.000983896 0.00833743
47 2 9.03638 11.8742 6.75719 0.0154635 0.0279311 0.0216262
48 2 10.1062 10.5622 6.91556 -0.0249649 0.053749 -0.000585011
49 1 9.24204 7.14317 9.39916 0.00548823 -0.00382567 0.000775869
50 2 8.53665 6.52484 9.17267 -0.0121797 -0.0226976 0.00880982
51 2 9.23519 7.22904 10.3505 0.0231506 0.0114062 -0.0138147
52 1 10.9031 11.4015 3.52926 0.00182566 0.00117565 -0.00526725
53 2 10.299 11.9945 3.99009 -0.00326222 -0.00558125 -0.0011538
54 2 11.2733 10.8488 4.27914 0.00439774 0.0110936 -0.0151074
55 1 6.09856 11.254 3.21479 -0.0113589 -6.47411e-05 -0.0115721
56 2 6.19808 10.3123 2.94338 -0.0119814 0.0299738 -0.0112231
57 2 5.22405 11.5507 2.97666 -0.00490842 0.00782649 0.00330394
58 1 6.62759 9.26991 8.60622 -0.0013109 -0.00128711 0.00116791
59 2 5.15896 12.0546 8.69777 0.018316 -0.0232465 -0.00784603
60 2 7.28643 9.86136 9.14872 0.0323354 0.0067962 -0.0147177
61 1 7.17731 5.64209 8.51173 -0.000176965 0.00162972 0.00545193
62 2 6.88891 5.35501 9.38862 -0.020483 -0.00172511 0.0065751
63 2 6.39015 6.02792 8.15483 0.0283702 0.0131925 -0.0249782
64 1 5.04699 11.3393 8.01484 0.000634706 -0.00540659 -0.000880795
65 2 4.86342 11.4497 6.34207 0.000148902 -0.0132266 0.0254376
66 2 4.51529 5.18986 6.85037 -0.013807 0.0142271 0.00724674
67 1 10.8726 9.38768 6.98423 -0.000134861 0.00163022 0.0109607
68 2 11.7441 9.67258 6.40963 0.00116468 0.0165273 -0.028533
69 2 11.2336 9.51562 7.98613 0.0140795 0.00771106 0.0232865
70 1 11.2014 13.8039 7.5308 0.00387618 -0.00077185 0.000654046
71 2 10.6883 12.9253 7.46122 0.0225264 0.00208977 -0.0104288
72 2 11.2552 4.21959 8.48746 -0.0058429 -0.0362835 -0.0128993
73 1 9.01781 6.60536 6.42943 -0.00457964 -0.00229628 -0.00224837
74 2 8.38754 6.16201 6.97953 -0.0113365 -0.00801253 -0.00974762
75 2 9.4838 7.05668 7.11989 -0.0106101 -0.0112463 -0.00170538
76 1 11.5235 5.17615 9.91166 0.00039211 -0.00184159 0.00764923
77 2 11.2845 6.03505 9.67791 0.025772 -0.00328146 -0.00537721
78 2 3.55976 6.7114 9.4155 0.0063291 0.00141341 0.00133382
79 1 12.0096 9.74185 9.49531 0.00559984 -0.00124281 -0.00101452
80 2 12.4643 8.84725 9.61004 0.00181848 -0.0140711 -0.00150901
81 2 5.74615 10.6169 8.30509 0.0278747 0.0144859 -0.0177632
82 1 6.60501 4.76718 11.4783 0.00238454 0.00359446 0.000672325
83 2 7.55943 4.73107 11.7371 0.0123086 -0.003033 0.0139602
84 2 6.1628 4.99958 2.46517 0.00583719 0.00728856 -0.0282347
85 1 9.88115 4.41776 2.22489 -0.00897935 0.00167985 0.000403017
86 2 10.4447 4.91142 2.86606 0.0112971 0.0160799 0.0105486
87 2 10.8363 4.83052 10.5774 -0.0121425 -0.00870481 -0.0248787
88 1 7.21013 13.3657 6.62279 0.000490996 0.00280095 -0.000278167
89 2 6.2823 13.0095 6.55299 0.0137904 -0.00938001 0.00219654
90 2 7.16454 13.7962 7.46547 -0.00743936 0.00817391 0.0067025
91 1 4.98872 7.80593 5.77329 -0.000958744 -0.00364656 -9.16266e-05
92 2 3.34086 8.85236 5.22379 -0.0161207 -0.0172607 -0.00379128
93 2 4.78345 7.22472 6.58278 -0.00325449 0.0105765 -0.00777962
94 1 4.4714 5.75667 7.66068 -0.00402748 0.00289333 0.00486102
95 2 4.59386 5.07284 8.33102 0.0158036 0.0228561 0.0188742
96 2 5.11798 7.19869 5.01242 -0.00510524 0.0150744 -0.00869303
ITEM: TIMESTEP
4
ITEM: NUMBER OF ATOMS
96
ITEM: BOX BOUNDS pp pp pp
2.9236100000000000e+00 1.2773600000000000e+01
4.0306300000000004e+00 1.3880599999999999e+01
2.1372399999999998e+00 1.1987200000000000e+01
ITEM: ATOMS id type x y z vx vy vz
1 1 8.57683 12.1852 4.35803 0.000331875 -0.00285403 0.00333513
2 2 7.79503 11.7075 4.01111 -0.0345207 0.0230669 -0.00167359
3 2 10.0175 13.3522 2.37988 0.019765 -0.00223305 0.0194668
4 1 3.27487 12.1203 11.8056 -0.000220452 0.00720475 -0.00579138
5 2 12.7285 11.5744 11.1536 0.00474862 0.0286882 -0.0230002
6 2 12.5837 12.1468 2.71228 0.00662645 0.0221945 -0.0269169
7 1 12.7716 7.37755 2.88014 0.00469572 0.00277965 -0.00295268
8 2 12.018 7.1149 3.42671 0.0232533 0.00299899 -0.00757673
9 2 8.27548 8.06512 6.32942 0.00207343 -0.00209342 -0.0272319
10 1 7.55938 8.76084 6.21315 -0.00352026 -0.00713256 -0.000190015
11 2 6.69466 8.31449 5.91862 -0.0116505 -0.029207 -0.00666737
12 2 7.1018 8.99595 7.72241 -0.0200898 -0.011792 -0.0286092
13 1 6.13628 8.27492 2.45511 0.00450956 -0.00135571 -0.000152464
14 2 5.67897 8.21699 11.4242 -0.0135615 -0.0131426 -0.0217696
15 2 5.85721 7.48681 2.89058 -0.0209703 0.00882302 -0.0186152
16 1 8.94134 7.44509 2.45013 0.0022596 -0.00111544 -0.000395694
17 2 9.04358 6.49567 2.35495 0.00649217 -0.0117181 0.00315929
18 2 8.00777 7.55641 2.69525 0.00925359 -0.000782067 -0.0252615
19 1 3.70073 7.3816 10.0907 -0.0107428 -0.00331578 -0.00151131
20 2 3.21122 7.07623 10.8629 0.0033438 -0.00291264 0.00233413
21 2 11.3781 9.91162 10.2904 0.00611494 -0.0169458 0.00265769
22 1 9.8993 9.8275 11.4795 -0.00237726 0.00353189 -0.00535052
23 2 10.0279 10.418 2.45262 0.0162547 0.00722098 0.0347168
24 2 9.41414 9.01409 11.8361 0.0134649 0.00209649 -0.0112585
25 1 12.6825 9.67406 5.16411 0.00303295 0.00137697 0.000412227
26 2 3.47997 10.4014 5.40469 0.0194913 0.0248006 0.0145387
27 2 4.28567 6.35682 3.38878 0.00296598 0.00884009 -0.00972752
28 1 11.2429 5.64618 4.33501 0.00243358 -0.000283986 0.00369686
29 2 11.8317 5.05311 4.86882 -0.0208447 0.00417321 0.0171436
30 2 10.5606 5.96523 4.9529 -0.0168475 0.0237415 -0.0145583
31 1 4.54455 11.662 5.38811 0.00670212 0.00120515 0.011663
32 2 3.70529 13.3103 5.54262 -0.00958596 -0.00336048 -0.00475661
33 2 5.22093 11.3119 4.79088 0.0295377 -0.00266157 -0.00476046
34 1 4.76157 13.3477 9.80748 -0.00196924 0.00324133 -0.00103118
35 2 4.10092 12.9624 10.4522 0.0200986 0.0359742 -0.0355602
36 2 5.18181 4.17749 10.2875 -0.00632917 -0.0106024 0.0196803
37 1 8.17639 11.0441 9.72614 0.00448862 -0.00465493 0.0014821
38 2 8.73291 11.3234 8.92757 -0.00680791 -0.00692888 0.0111578
39 2 8.78232 10.6267 10.47 0.00938919 -0.0117137 -0.00656914
40 1 3.30821 4.36678 5.70312 -0.00840568 -0.00197895 -0.00444199
41 2 4.77 5.22483 4.46561 -0.000596586 -0.0252892 -0.0188572
42 2 12.6247 4.34611 6.53485 -0.00788229 0.00952836 0.00159488
43 1 5.06772 5.86376 3.83146 0.00436387 -0.00279675 -0.0018714
44 2 3.12991 8.24379 3.19412 0.0223481 -0.0160938 -0.00158923
45 2 8.26065 12.5972 5.15187 0.000451222 0.00902565 -0.00136679
46 1 9.65807 11.5544 7.41498 -0.00479736 0.000963693 0.00824831
47 2 9.04419 11.888 6.76822 0.015169 0.027529 0.0219928
48 2 10.0923 10.5918 6.91617 -0.0300901 0.0633014 0.00295014
49 1 9.24487 7.14129 9.39953 0.00576905 -0.00375146 0.000676456
50 2 8.53009 6.51325 9.17686 -0.0134012 -0.0230113 0.00826115
51 2 9.2467 7.23503 10.344 0.0227744 0.0125143 -0.0117185
52 1 10.9041 11.4021 3.52668 0.00218389 0.000993109 -0.00507664
53 2 10.2965 11.9923 3.98959 -0.00679146 -0.00317216 -0.000849855
54 2 11.2754 10.8546 4.27042 0.00428975 0.0114367 -0.0193637
55 1 6.09294 11.2539 3.20903 -0.0111129 -0.00014263 -0.0114354
56 2 6.1913 10.328 2.9377 -0.0150798 0.0313884 -0.0118518
57 2 5.22128 11.5541 2.9776 -0.00654864 0.00605522 0.000288818
58 1 6.62691 9.26928 8.60684 -0.00139812 -0.0012318 0.00127173
59 2 5.16762 12.0431 8.69355 0.0161901 -0.0222387 -0.0087394
60 2 7.30261 9.8642 9.14106 0.0319457 0.00415582 -0.0162764
61 1 7.17724 5.64285 8.51449 -8.18009e-05 0.00139016 0.00561793
62 2 6.87863 5.35394 9.39224 -0.0207166 -0.00240253 0.00755143
63 2 6.40335 6.03507 8.14193 0.0242338 0.0154189 -0.0264611
64 1 5.04738 11.3366 8.01444 0.000939324 -0.00552387 -0.000732386
65 2 4.86329 11.4433 6.35435 -0.000634114 -0.0122129 0.0232087
66 2 4.50804 5.19775 6.85399 -0.0151857 0.0169361 0.00714593
67 1 10.8727 9.38839 6.98984 0.000492345 0.00131854 0.0115198
68 2 11.7437 9.68047 6.39586 -0.00365217 0.0146534 -0.0257169
69 2 11.2401 9.51932 7.99674 0.0117408 0.00701002 0.0181717
70 1 11.2033 13.8034 7.5311 0.00380953 -0.000953724 0.000527322
71 2 10.6998 12.9268 7.45636 0.023297 0.00354851 -0.00917063
72 2 11.2523 4.20153 8.48102 -0.00550034 -0.0355681 -0.0120963
73 1 9.01557 6.6042 6.42825 -0.00438419 -0.00237498 -0.00245289
74 2 8.38078 6.15689 6.97482 -0.0154412 -0.012262 -0.00921718
75 2 9.47993 7.05154 7.11975 -0.00499779 -0.00921451 0.00123958
76 1 11.5237 5.17508 9.91554 0.000429783 -0.0024452 0.00788267
77 2 11.2963 6.03486 9.67501 0.0213041 0.00246726 -0.00617025
78 2 3.56306 6.7121 9.41626 0.00674591 0.00111018 0.00150782
79 1 12.0124 9.7412 9.49484 0.0053871 -0.00136921 -0.000858601
80 2 12.4645 8.84143 9.60988 -0.000727367 -0.00905549 0.00074015
81 2 5.75938 10.624 8.29553 0.0251633 0.0132669 -0.0204685