ITEM: TIMESTEP
0
ITEM: NUMBER OF ATOMS
96
ITEM: BOX BOUNDS pp pp pp
2.9236100000000000e+00 1.2773600000000000e+01
4.0306300000000004e+00 1.3880599999999999e+01
2.1372399999999998e+00 1.1987200000000000e+01
ITEM: ATOMS id type x y z vx vy vz
1 1 8.57606 12.1935 4.34806 0.000155403 0.00302764 -0.00299027
2 2 7.88814 11.6378 4.00569 0.0222517 -0.0256856 -0.00581637
3 2 9.97221 13.3241 2.34757 -0.0101602 -0.0193187 -0.00165297
4 1 3.27902 12.1002 11.8227 0.00163154 -0.00659323 0.00591404
5 2 12.6888 11.4663 11.2241 -0.0163478 -0.0382488 0.0266055
6 2 12.5345 12.0636 2.7931 -0.0164749 -0.0311336 0.0171538
7 1 12.7573 7.36941 2.88966 -0.00524848 -0.00221305 0.00383833
8 2 11.9578 7.09104 3.44319 -0.0101315 -0.0111884 -0.00115619
9 2 8.25303 8.06626 6.39059 -0.0123859 -0.00207039 0.0132292
10 1 7.56845 8.78469 6.21254 0.00303163 0.00897177 -0.000364662
11 2 6.73134 8.39371 5.9437 0.00614574 0.0200162 0.00785998
12 2 7.16311 9.04216 7.8063 0.0233956 0.0166723 0.0196495
13 1 6.1238 8.28056 2.4553 -0.00329884 0.00230898 0.00114323
14 2 5.71518 8.24584 11.4982 0.00236959 0.003224 0.0136991
15 2 5.90916 7.45626 2.93949 0.0136993 -0.00708344 0.00948459
16 1 8.93292 7.44814 2.45224 -0.003621 0.00101756 0.00109922
17 2 9.02923 6.50803 2.35092 -0.00311891 -0.00470995 0.000696873
18 2 7.99111 7.5618 2.75876 0.00246812 0.00204746 0.015498
19 1 3.73216 7.39223 10.0941 0.010028 0.00345101 0.000801346
20 2 3.20646 7.08487 10.8571 0.00201541 0.00466285 -0.00232967
21 2 11.3983 9.91975 10.2331 0.0128399 -0.00938217 -0.0265863
22 1 9.90463 9.81642 11.4944 0.00113179 -0.00425666 0.00391057
23 2 9.99403 10.4167 2.36336 -0.00543815 0.0129215 -0.0151785
24 2 9.39165 9.02593 11.8507 -0.0018755 0.00907726 -0.000583492
25 1 12.6715 9.66761 5.15936 -0.00421502 -0.00323471 -0.00266219
26 2 3.45099 10.3745 5.37163 0.000230131 0.0120849 -0.00675111
27 2 4.27165 6.30244 3.44248 -0.0112513 -0.0216692 0.0206125
28 1 11.2347 5.64727 4.32397 -0.00274291 0.000263763 -0.00354818
29 2 11.8895 5.04852 4.80657 0.0164092 0.00291102 -0.026072
30 2 10.6037 5.89662 5.00202 0.009555 -0.020427 0.0192232
31 1 4.5232 11.6607 5.35716 -0.00774665 0.000484134 -0.00908619
32 2 3.71455 13.3301 5.56737 -0.000936085 0.00653266 0.00921789
33 2 5.17737 11.3033 4.76704 0.00355514 -0.00976275 -0.0242729
34 1 4.76282 13.3357 9.81114 -0.00124789 -0.00465408 0.0020449
35 2 4.09408 12.8864 10.5185 0.0231399 -0.0081997 0.00378153
36 2 5.23257 4.22583 10.2617 0.020737 0.0119006 -0.000444298
37 1 8.1659 11.0595 9.72281 -0.0025726 0.00569676 -0.00106189
38 2 8.75127 11.3181 8.92676 0.00381025 -0.0102037 0.0105295
39 2 8.7466 10.6754 10.4385 -0.0124181 0.0187781 -0.0238326
40 1 3.33607 4.37169 5.71523 0.00994552 0.00140785 0.00378313
41 2 4.72868 5.2902 4.52994 -0.0249449 0.0177804 0.0236012
42 2 12.6349 4.29756 6.54304 -0.00205651 -0.0207229 0.00662061
43 1 5.05673 5.87448 3.835 -0.00278563 0.00396173 0.000852077
44 2 3.06334 8.29867 3.20271 -0.0234719 0.0115804 0.0011663
45 2 8.24398 12.5896 5.17818 -0.0105137 0.00105641 0.0115092
46 1 9.67208 11.5516 7.38893 0.00431428 -0.000968561 -0.00930233
47 2 9.00849 11.7968 6.71642 -0.00442426 -0.0340921 -0.00873265
48 2 10.1267 10.5087 6.93838 -0.0101252 0.0152146 0.01707
49 1 9.23091 7.15398 9.39789 -0.00327255 0.0049604 0.000164146
50 2 8.54521 6.56664 9.13991 -0.0079535 0.00846016 -0.0189765
51 2 9.17725 7.20825 10.3849 -0.0225942 -0.00511343 0.00901087
52 1 10.9009 11.3974 3.54412 2.2249e-06 -0.00199961 0.00664555
53 2 10.2887 12.0202 3.99429 -0.00939141 0.0126219 0.00168959
54 2 11.2577 10.8296 4.28505 -0.00840379 -0.00366144 -0.00967257
55 1 6.12791 11.2522 3.24376 0.0118632 -0.00184246 0.0113895
56 2 6.20842 10.2706 2.9748 -0.0028278 0.00122522 0.0155172
57 2 5.23661 11.5188 2.95381 0.00843201 -0.017294 -0.0134532
58 1 6.62947 9.27304 8.60441 -4.60398e-05 0.00108752 -0.000175054
59 2 5.10424 12.1041 8.70573 -0.0236863 0.0123542 -0.00236106
60 2 7.21326 9.83895 9.18585 -0.0237869 -0.00789383 0.0181746
61 1 7.17747 5.63696 8.49867 -0.000452177 -0.0022924 -0.00512259
62 2 6.94143 5.35151 9.3848 0.0225832 -0.00516969 0.00429203
63 2 6.30489 6.00541 8.20726 -0.0341422 -0.00694864 0.0175961
64 1 5.04706 11.3526 8.01808 0.000537492 0.00532803 0.00165501
65 2 4.8591 11.4864 6.27817 -0.0025064 0.0152032 -0.0214141
66 2 4.54103 5.17873 6.83288 0.00690335 0.00646637 -0.0069824
67 1 10.8758 9.37998 6.95995 0.00196203 -0.0049084 -0.00860365
68 2 11.7323 9.62987 6.47553 -0.0015078 -0.0146352 0.017065
69 2 11.188 9.49191 7.92161 -0.0212818 -0.0116303 -0.0207481
70 1 11.1912 13.8047 7.52928 -0.00423635 -4.27785e-05 -0.000325092
71 2 10.6403 12.9353 7.4984 -0.0148564 0.0114346 0.0197744
72 2 11.2677 4.30486 8.5067 0.00285376 0.028998 -0.00204152
73 1 9.03067 6.61101 6.4345 0.00570661 0.0023322 0.002245
74 2 8.39323 6.15763 7.0062 -0.00312426 -0.00873356 0.00974221
75 2 9.53826 7.09021 7.13295 0.0281961 0.0120043 0.00393416
76 1 11.5222 5.17783 9.8942 -0.00084762 6.84084e-05 -0.00634611
77 2 11.1976 6.07012 9.68601 -0.0406495 0.018565 0.00141986
78 2 3.54945 6.71279 9.41766 -0.00104153 0.00424624 0.00395491
79 1 11.9946 9.74483 9.49815 -0.0062006 0.0014277 0.000858487
80 2 12.4482 8.90304 9.62964 -0.00803902 0.0247937 0.0143898
81 2 5.65804 10.5848 8.33429 -0.0420471 -0.00825169 0.00681227
82 1 6.59963 4.75918 11.4782 -0.00249045 -0.00273907 0.000642991
83 2 7.51341 4.73314 11.6973 -0.0177091 -0.00161348 -0.0158696
84 2 6.15844 4.97552 2.51011 0.00432832 -0.0128994 0.00357613
85 1 9.90192 4.41578 2.22106 0.00737752 -0.00022916 -0.00297003
86 2 10.4267 4.86552 2.85849 0.000684642 -0.0178682 0.00909228
87 2 10.8843 4.86737 10.6228 0.0263135 0.0183103 0.011089
88 1 7.20622 13.3568 6.62232 -0.00245224 -0.00427905 -0.000713804
89 2 6.2835 13.0381 6.54399 0.0124787 0.0127436 -0.00458607
90 2 7.19304 13.7918 7.46297 0.0147807 0.00474982 0.00511091
91 1 4.99106 7.81397 5.77543 0.000894137 0.00257373 0.00149143
92 2 3.3923 8.87274 5.24178 0.0225627 -0.000988075 0.0096708
93 2 4.79888 7.22161 6.56873 0.0085174 0.00905679 -0.0167756
94 1 4.48235 5.74761 7.64804 0.00475905 -0.00453988 -0.00519691
95 2 4.5491 5.02422 8.30167 -0.0202763 -0.0143226 -0.0046619
96 2 5.12921 7.15922 5.03644 0.00408775 -0.013533 0.0103959
ITEM: TIMESTEP
1
ITEM: NUMBER OF ATOMS
96
ITEM: BOX BOUNDS pp pp pp
2.9236100000000000e+00 1.2773600000000000e+01
4.0306300000000004e+00 1.3880599999999999e+01
2.1372399999999998e+00 1.1987200000000000e+01
ITEM: ATOMS id type x y z vx vy vz
1 1 8.57618 12.1951 4.34662 0.000319559 0.0032121 -0.00274925
2 2 7.89834 11.6247 4.00251 0.018683 -0.0264944 -0.00671902
3 2 9.9675 13.3141 2.34745 -0.00876102 -0.0200315 0.00105766
4 1 3.27978 12.0969 11.8257 0.00134455 -0.00678033 0.0061128
5 2 12.6809 11.4475 11.2378 -0.0147788 -0.0364912 0.0283089
6 2 12.527 12.048 2.80023 -0.0129887 -0.0309472 0.0110364
7 1 12.7546 7.36837 2.89166 -0.00551098 -0.00191306 0.00415709
8 2 11.9539 7.08529 3.44183 -0.00534276 -0.0117767 -0.00431102
9 2 8.24655 8.06492 6.39662 -0.0134124 -0.00336657 0.0109305
10 1 7.57 8.78927 6.21236 0.00318039 0.00935745 -0.000354439
11 2 6.73345 8.40299 5.94744 0.00206216 0.0170628 0.00704989
12 2 7.17521 9.05046 7.81499 0.0250024 0.0164762 0.0149622
13 1 6.12225 8.28174 2.45604 -0.00287103 0.00240452 0.0018392
14 2 5.71503 8.24676 11.5032 -0.00318041 0.000363751 0.00600512
15 2 5.91571 7.45328 2.94339 0.0124823 -0.00466682 0.00595747
16 1 8.93103 7.44864 2.45283 -0.00392568 0.000978628 0.00123677
17 2 9.02778 6.50501 2.35147 -0.00270902 -0.00706281 0.00157235
18 2 7.99319 7.5628 2.76595 0.00579799 0.00191432 0.0132814
19 1 3.73713 7.39393 10.0945 0.00983893 0.00333433 0.000710274
20 2 3.20788 7.08746 10.8559 0.00372717 0.00577329 -0.00257905
21 2 11.4045 9.91436 10.2201 0.0107748 -0.0117073 -0.024082
22 1 9.90515 9.81423 11.4962 0.000957792 -0.00448331 0.00342171
23 2 9.99181 10.4246 2.35746 -0.00351258 0.0184252 -0.00845382
24 2 9.3911 9.03077 11.8501 -0.000478181 0.0101102 -0.00162981
25 1 12.6694 9.66588 5.15795 -0.00422201 -0.00367438 -0.00294543
26 2 3.45171 10.3824 5.36856 0.00216346 0.0189184 -0.00570438
27 2 4.26517 6.29176 3.45256 -0.0147694 -0.0206834 0.0192957
28 1 11.2333 5.64738 4.32222 -0.00267917 0.00019345 -0.00345972
29 2 11.8974 5.05043 4.79302 0.0152154 0.00474867 -0.0280738
30 2 10.608 5.88668 5.01188 0.00771505 -0.0193411 0.0200879
31 1 4.51928 11.661 5.35269 -0.00791028 0.000767971 -0.00884801
32 2 3.71398 13.3331 5.57184 -0.00111787 0.00511391 0.00842972
33 2 5.18053 11.2979 4.75364 0.00852059 -0.0113957 -0.028715
34 1 4.76207 13.3334 9.81226 -0.00168683 -0.00468444 0.00244143
35 2 4.1079 12.8839 10.5188 0.0317134 -0.0018833 -0.00213159
36 2 5.24275 4.23068 10.2619 0.0196142 0.00694975 0.000850193
37 1 8.16467 11.0624 9.72226 -0.00238602 0.00593941 -0.00117544
38 2 8.75292 11.3124 8.93274 0.00280462 -0.0123217 0.0130048
39 2 8.74063 10.6847 10.426 -0.0110523 0.0181444 -0.0251357
40 1 3.34107 4.37238 5.71712 0.0100372 0.001374 0.00381112
41 2 4.71567 5.29882 4.54176 -0.0265404 0.0168853 0.0233467
42 2 12.6334 4.28702 6.54652 -0.00375771 -0.0211774 0.00699157
43 1 5.05541 5.87646 3.83544 -0.00251314 0.00390751 0.000944825
44 2 3.05142 8.30333 3.20298 -0.0242133 0.00679615 -0.000143403
45 2 8.23838 12.5901 5.18367 -0.0117467 0.00079934 0.00992285
46 1 9.6742 11.5511 7.38422 0.00416946 -0.00105023 -0.00953943
47 2 9.00701 11.7795 6.71288 -0.00171484 -0.0346695 -0.00559648
48 2 10.1198 10.5202 6.94765 -0.0175447 0.0306939 0.0199579
49 1 9.22939 7.15652 9.39807 -0.00282058 0.00519887 0.000555205
50 2 8.54006 6.57002 9.12978 -0.0123368 0.00536899 -0.0214237
51 2 9.16605 7.20601 10.3885 -0.0221743 -0.00384791 0.00523268
52 1 10.901 11.3964 3.5475 0.000264096 -0.00202 0.00686602
53 2 10.2837 12.0265 3.99508 -0.0103805 0.0121575 0.00141398
54 2 11.2533 10.8281 4.27924 -0.00900096 -0.00251639 -0.0130205
55 1 6.13383 11.2512 3.24942 0.011788 -0.00233326 0.0112541
56 2 6.20645 10.2731 2.98293 -0.00476339 0.00854541 0.0169749
57 2 5.2414 11.5098 2.94678 0.0108526 -0.0185209 -0.0145624
58 1 6.62935 9.27356 8.60438 -0.000418574 0.000979555 6.52752e-05
59 2 5.09238 12.1093 8.704 -0.0235499 0.00829438 -0.00440585
60 2 7.20204 9.83533 9.19549 -0.0211387 -0.00650933 0.0204789
61 1 7.17715 5.6358 8.49611 -0.000859212 -0.00231508 -0.00510854
62 2 6.95297 5.34853 9.38749 0.0236619 -0.00667945 0.00624785
63 2 6.28837 6.00192 8.21581 -0.0313267 -0.00725584 0.0166862
64 1 5.04736 11.3553 8.01893 0.000638788 0.00538443 0.00171281
65 2 4.85786 11.494 6.26819 -0.00233141 0.0150373 -0.0183359
66 2 4.54416 5.18305 6.82932 0.00566845 0.0106284 -0.00742991
67 1 10.8768 9.37732 6.95575 0.00209208 -0.00572794 -0.00821783
68 2 11.7324 9.62301 6.48262 0.00210108 -0.0127049 0.0110028
69 2 11.1771 9.48583 7.91228 -0.0221471 -0.0127408 -0.0162474
70 1 11.1891 13.8047 7.52916 -0.0042807 -0.000140763 -0.000162898
71 2 10.6334 12.9418 7.50878 -0.0128104 0.0146543 0.0216776
72 2 11.2688 4.31864 8.50445 0.00156621 0.0259727 -0.00700255
73 1 9.03357 6.61219 6.43569 0.00590213 0.0023914 0.00254508
74 2 8.39154 6.15288 7.01075 -0.00311173 -0.00983784 0.00819485
75 2 9.55254 7.09575 7.13436 0.0283945 0.00978457 0.00132028
76 1 11.5217 5.17787 9.89108 -0.00105267 0.000163453 -0.00613998
77 2 11.177 6.07918 9.68658 -0.0411343 0.0168606 0.000868877
78 2 3.5493 6.71537 9.41997 0.000472042 0.00607491 0.00520009
79 1 11.9915 9.74559 9.49851 -0.00614558 0.00164608 0.000502318
80 2 12.4444 8.91508 9.63748 -0.00684545 0.022645 0.0169152
81 2 5.63647 10.5813 8.33736 -0.0439242 -0.00591418 0.00571234
82 1 6.5983 4.75786 11.4786 -0.00285341 -0.00255052 0.000876934
83 2 7.5053 4.73207 11.6896 -0.0139667 -0.00269647 -0.0149037
84 2 6.16127 4.96872 2.51032 0.00685818 -0.0142163 -0.00248214
85 1 9.9055 4.41568 2.21942 0.00696475 -0.000199761 -0.00358659
86 2 10.428 4.85679 2.86451 0.00455947 -0.0170618 0.0149509
87 2 10.8981 4.87661 10.6277 0.028608 0.0182393 0.00873225
88 1 7.20494 13.3546 6.62191 -0.00263012 -0.00448603 -0.000893316
89 2 6.29054 13.0445 6.54164 0.0149217 0.0125725 -0.00475654
90 2 7.2007 13.7948 7.46603 0.0157223 0.00685414 0.0067815
91 1 4.9915 7.81519 5.77622 0.000887726 0.00230486 0.00161194
92 2 3.40348 8.87153 5.24678 0.0217315 -0.00334327 0.010239
93 2 4.80327 7.22711 6.55965 0.00883283 0.0126603 -0.0186819
94 1 4.48477 5.74524 7.64544 0.00492049 -0.0049434 -0.00517086
95 2 4.53871 5.01771 8.29997 -0.0213073 -0.011604 -0.00230388
96 2 5.13124 7.15291 5.04163 0.00409393 -0.0115428 0.01016
ITEM: TIMESTEP
2
ITEM: NUMBER OF ATOMS
96
ITEM: BOX BOUNDS pp pp pp
2.9236100000000000e+00 1.2773600000000000e+01
4.0306300000000004e+00 1.3880599999999999e+01
2.1372399999999998e+00 1.1987200000000000e+01
ITEM: ATOMS id type x y z vx vy vz
1 1 8.57638 12.1967 4.34531 0.000452835 0.00340644 -0.00247326
2 2 7.90682 11.6113 3.99897 0.0155042 -0.0268372 -0.00716931
3 2 9.96345 13.3041 2.34863 -0.00753437 -0.0191765 0.00346943
4 1 3.28036 12.0934 11.8288 0.000931179 -0.00706592 0.00634426
5 2 12.674 11.4298 11.2524 -0.0121764 -0.0338138 0.0298999
6 2 12.5215 12.0327 2.80414 -0.00843556 -0.0300481 0.00451743
7 1 12.7518 7.3675 2.89382 -0.00577612 -0.00158905 0.00446782
8 2 11.9525 7.07926 3.43888 -0.000677512 -0.0123031 -0.00736111
9 2 8.23962 8.06289 6.40152 -0.014186 -0.00478502 0.00867718
10 1 7.57163 8.79405 6.21219 0.00334926 0.00973546 -0.000330654
11 2 6.7334 8.41077 5.95075 -0.00231548 0.014138 0.00617012
12 2 7.18811 9.05864 7.82126 0.026515 0.0162535 0.010204
13 1 6.12093 8.28296 2.45714 -0.00243374 0.00248506 0.0025636
14 2 5.712 8.2462 11.5042 -0.00889057 -0.00261122 -0.00190414
15 2 5.92164 7.45159 2.94545 0.0112144 -0.0019933 0.00221394
16 1 8.92899 7.44912 2.45348 -0.004207 0.000894164 0.00136214
17 2 9.02652 6.50097 2.35249 -0.00239603 -0.00877298 0.00255943
18 2 7.99691 7.56371 2.77204 0.0088434 0.00174923 0.0111166
19 1 3.742 7.39556 10.0948 0.00965136 0.00320973 0.000635199
20 2 3.21019 7.09064 10.8545 0.00549653 0.00696202 -0.00274833
21 2 11.4091 9.90804 10.209 0.00679657 -0.0131338 -0.0194289
22 1 9.90559 9.81194 11.4978 0.000823201 -0.00465444 0.0029431
23 2 9.99052 10.4351 2.35491 -0.00176635 0.0233785 -0.00207582
24 2 9.39117 9.03604 11.8491 0.000599162 0.0107715 -0.00222039
25 1 12.6673 9.66394 5.15641 -0.00411102 -0.00411595 -0.00318852
26 2 3.45315 10.3934 5.36593 0.0030702 0.024714 -0.00504048
27 2 4.25688 6.28176 3.46178 -0.0182831 -0.0190362 0.0172183
28 1 11.232 5.64746 4.32051 -0.002624 0.000121189 -0.00335237
29 2 11.9047 5.05327 4.7785 0.0140559 0.00654343 -0.029938
30 2 10.6114 5.87728 5.02211 0.00608926 -0.0183052 0.0206596
31 1 4.51529 11.6615 5.34831 -0.00800238 0.00100172 -0.00871184
32 2 3.71343 13.3352 5.5758 -0.000844637 0.00325937 0.00720929
33 2 5.18589 11.2919 4.73832 0.0122172 -0.0122837 -0.03179
34 1 4.76113 13.331 9.81358 -0.00202649 -0.00460868 0.00281558
35 2 4.12579 12.8845 10.5164 0.0391552 0.00380295 -0.00705333
36 2 5.25218 4.23278 10.2626 0.017877 0.00111497 0.00166584
37 1 8.16351 11.0654 9.72163 -0.00227803 0.0062067 -0.00133364
38 2 8.75407 11.3058 8.93976 0.00186811 -0.0139584 0.0146019
39 2 8.73555 10.6935 10.4134 -0.00887853 0.0166938 -0.0246528
40 1 3.34611 4.37306 5.71904 0.0100668 0.00134606 0.00390223
41 2 4.70214 5.30709 4.55329 -0.0269654 0.0163444 0.0224389
42 2 12.6311 4.27638 6.55003 -0.00518976 -0.0211286 0.00670065
43 1 5.05422 5.87839 3.83594 -0.0023013 0.00378584 0.00112737
44 2 3.03913 8.30547 3.20257 -0.0249316 0.00170067 -0.00148997
45 2 8.23223 12.5904 5.1881 -0.0127267 -3.18642e-05 0.00733491
46 1 9.67625 11.5505 7.37939 0.00403259 -0.0011657 -0.00975904
47 2 9.00678 11.7621 6.71082 0.000352528 -0.0345645 -0.00292008
48 2 10.1092 10.5394 6.95834 -0.0245133 0.0456347 0.0226709
49 1 9.22809 7.15918 9.39845 -0.00242331 0.00538904 0.00095745
50 2 8.53287 6.57201 9.11849 -0.0159115 0.00302767 -0.0235484
51 2 9.15508 7.2044 10.3901 -0.0217208 -0.00261439 0.00094903
52 1 10.9012 11.3954 3.55099 0.000461727 -0.00196577 0.00702263
53 2 10.2783 12.0324 3.9957 -0.0108638 0.0109981 0.00104814
54 2 11.2487 10.8271 4.27203 -0.00927341 -0.001955 -0.0151934
55 1 6.1397 11.2499 3.25501 0.0116583 -0.00278812 0.0111173
56 2 6.20366 10.2791 2.99177 -0.00610706 0.0148257 0.0183149
57 2 5.24746 11.5003 2.93925 0.0134296 -0.0192425 -0.0154831
58 1 6.62905 9.27402 8.60448 -0.000777685 0.000865892 0.000296317
59 2 5.08069 12.1124 8.70132 -0.0230477 0.00415155 -0.00609531
60 2 7.19212 9.83244 9.20633 -0.0186449 -0.00504839 0.0228243
61 1 7.17661 5.63464 8.49356 -0.00134121 -0.00231689 -0.00508242
62 2 6.96509 5.34483 9.39105 0.0248765 -0.00805159 0.00769337
63 2 6.27356 5.99815 8.22395 -0.0274092 -0.00802081 0.0159567
64 1 5.0477 11.358 8.01979 0.000682314 0.00545514 0.00170087
65 2 4.85677 11.5014 6.25983 -0.00193764 0.0147348 -0.0150236
66 2 4.5467 5.18936 6.82545 0.00451123 0.0143231 -0.00823882
67 1 10.8779 9.37425 6.95173 0.00218906 -0.00654962 -0.00785397
68 2 11.7344 9.61717 6.48653 0.00613813 -0.010654 0.0045808
69 2 11.1659 9.47917 7.90536 -0.0229066 -0.0139498 -0.0113412
70 1 11.1869 13.8046 7.52912 -0.00430439 -0.000206078 -1.08916e-05
71 2 10.6275 12.95 7.52008 -0.0107377 0.0177619 0.0234391
72 2 11.2693 4.33083 8.4997 0.000188744 0.0227516 -0.0118741
73 1 9.03657 6.6134 6.43705 0.00607543 0.00245255 0.00292009
74 2 8.39012 6.14779 7.01439 -0.00205847 -0.0101109 0.00614501
75 2 9.56665 7.09999 7.13427 0.0276247 0.00691985 -0.00193001
76 1 11.5211 5.17799 9.88806 -0.00128268 0.000422066 -0.00596915
77 2 11.1565 6.08698 9.68688 -0.0406842 0.0135983 0.000345533
78 2 3.54992 6.71886 9.42286 0.00201809 0.00779028 0.0062106
79 1 11.9885 9.74648 9.49865 -0.00602164 0.00190527 2.80428e-05
80 2 12.4414 8.92568 9.64656 -0.00474934 0.0191595 0.019281
81 2 5.61412 10.5789 8.34 -0.0451336 -0.00385941 0.00513399
82 1 6.59678 4.75663 11.4791 -0.0032755 -0.00237304 0.00104132
83 2 7.49944 4.73044 11.6824 -0.00889072 -0.00381558 -0.0135895
84 2 6.1653 4.9613 2.50763 0.00902508 -0.0153238 -0.00781216
85 1 9.90888 4.41558 2.21747 0.00657872 -0.000259279 -0.00415941
86 2 10.4313 4.84846 2.87344 0.00811821 -0.0163978 0.0205104
87 2 10.9129 4.88561 10.6315 0.0304357 0.0173586 0.0069327
88 1 7.20359 13.3523 6.62143 -0.00268834 -0.00463246 -0.00103085
89 2 6.29842 13.0507 6.53923 0.0157255 0.0119488 -0.00483336
90 2 7.20876 13.7987 7.46975 0.016404 0.00849105 0.0076635
91 1 4.99195 7.81627 5.77704 0.00089508 0.00207442 0.00164145
92 2 3.41403 8.8694 5.25202 0.0200401 -0.00459874 0.010629
93 2 4.80771 7.23427 6.55005 0.00871764 0.0155558 -0.0187732
94 1 4.48727 5.74267 7.64287 0.00508396 -0.00533479 -0.00508416
95 2 4.52779 5.01262 8.29937 -0.0223344 -0.00871214 -0.000348825
96 2 5.1333 7.14768 5.0466 0.00420364 -0.00926954 0.00944987
ITEM: TIMESTEP
3
ITEM: NUMBER OF ATOMS
96
ITEM: BOX BOUNDS pp pp pp
2.9236100000000000e+00 1.2773600000000000e+01
4.0306300000000004e+00 1.3880599999999999e+01
2.1372399999999998e+00 1.1987200000000000e+01
ITEM: ATOMS id type x y z vx vy vz
1 1 8.57663 12.1985 4.34415 0.00054336 0.00359331 -0.00217776
2 2 7.91385 11.5979 3.99534 0.0129389 -0.0265391 -0.00709443
3 2 9.95997 13.2949 2.35092 -0.00649132 -0.0167822 0.00552877
4 1 3.28071 12.0898 11.832 0.00041876 -0.00744116 0.0065968
5 2 12.6687 11.4137 11.2677 -0.00868441 -0.0304065 0.0311604
6 2 12.5185 12.0179 2.80474 -0.00310696 -0.0284152 -0.00193794
7 1 12.7488 7.36679 2.89613 -0.00602191 -0.00125954 0.0047466
8 2 11.9532 7.07298 3.43446 0.00348589 -0.012853 -0.0100684
9 2 8.23236 8.06014 6.4053 -0.014741 -0.0062463 0.00646281
10 1 7.57335 8.79901 6.21203 0.00351443 0.0100896 -0.000298608
11 2 6.73114 8.41713 5.95361 -0.00662677 0.0114411 0.00533952
12 2 7.20172 9.06671 7.82519 0.0277126 0.016122 0.00573884
13 1 6.11982 8.28423 2.4586 -0.00201628 0.00255514 0.0032495
14 2 5.70614 8.24415 11.5013 -0.0142831 -0.00560774 -0.009134
15 2 5.92692 7.45129 2.9456 0.00987046 0.00074222 -0.00158094
16 1 8.92682 7.44954 2.45419 -0.00444826 0.000756318 0.00146897
17 2 9.02539 6.49624 2.35403 -0.00218284 -0.0097414 0.0036567
18 2 8.00204 7.56455 2.77707 0.0113415 0.00158524 0.00910594
19 1 3.74678 7.39714 10.0951 0.00947427 0.00309291 0.000577482
20 2 3.21338 7.09443 10.8531 0.00723535 0.00815251 -0.00277335
21 2 11.4112 9.90123 10.2007 0.0011486 -0.0137237 -0.0130015
22 1 9.90597 9.80958 11.4992 0.000735415 -0.00473575 0.00250562
23 2 9.99004 10.448 2.35539 -0.000247603 0.027296 0.00346182
24 2 9.3917 9.04154 11.8479 0.00131911 0.011038 -0.00232055
25 1 12.6653 9.66177 5.15476 -0.0038784 -0.00454371 -0.00339261
26 2 3.45478 10.4071 5.36352 0.00289414 0.0291715 -0.00480031
27 2 4.24688 6.27272 3.46978 -0.0214408 -0.0169035 0.0145292
28 1 11.2307 5.64751 4.31886 -0.00259221 5.20684e-05 -0.00322669
29 2 11.9115 5.05698 4.76309 0.0130001 0.00820472 -0.0315586
30 2 10.6141 5.86837 5.03254 0.0047987 -0.017382 0.0208369
31 1 4.51128 11.662 5.34398 -0.00800924 0.0011751 -0.00867409
32 2 3.71313 13.3363 5.57905 -0.000181076 0.00112424 0.00560929
33 2 5.19275 11.2856 4.72185 0.0144636 -0.0123159 -0.0332577
34 1 4.76005 13.3287 9.81508 -0.0022521 -0.00442221 0.00312941
35 2 4.14706 12.8877 10.5118 0.0450055 0.00847177 -0.010569
36 2 5.26063 4.23179 10.2635 0.015785 -0.00519362 0.00211457
37 1 8.16239 11.0686 9.72092 -0.00225083 0.00649351 -0.00152428
38 2 8.75479 11.2985 8.94735 0.00106138 -0.015074 0.015204
39 2 8.73175 10.7014 10.4014 -0.00595549 0.0144445 -0.0223921
40 1 3.35114 4.37373 5.72102 0.0100356 0.00131434 0.00405729
41 2 4.6887 5.31517 4.56419 -0.0261757 0.0161605 0.0208558
42 2 12.6282 4.26589 6.55322 -0.00626776 -0.0205727 0.0056818
43 1 5.05311 5.88024 3.83657 -0.00217548 0.00361016 0.00139184
44 2 3.02649 8.30503 3.20149 -0.0255582 -0.00327857 -0.00273265
45 2 8.22566 12.5901 5.19101 -0.0134603 -0.00133743 0.00392124
46 1 9.67823 11.5499 7.37446 0.00390473 -0.00129704 -0.00994251
47 2 9.00737 11.745 6.70996 0.00142886 -0.0335886 -0.00092886
48 2 10.0952 10.5658 6.97033 -0.0304799 0.0589901 0.0250974
49 1 9.22697 7.16191 9.39902 -0.00209842 0.00551513 0.00134144
50 2 8.52415 6.57305 9.10623 -0.018391 0.00167969 -0.0251849
51 2 9.14433 7.2034 10.3895 -0.0212648 -0.00141946 -0.00354164
52 1 10.9014 11.3944 3.55453 0.000588672 -0.00183525 0.00710173
53 2 10.2728 12.0375 3.99613 -0.0109045 0.00919752 0.000640466
54 2 11.244 10.8262 4.26405 -0.00916485 -0.0021089 -0.016051
55 1 6.14549 11.2484 3.26054 0.0114798 -0.00317723 0.0109924
56 2 6.20035 10.288 3.00124 -0.00680093 0.0195182 0.019418
57 2 5.25483 11.4905 2.93129 0.0159774 -0.019372 -0.0163125
58 1 6.62858 9.27442 8.60468 -0.00109971 0.00075502 0.00050947
59 2 5.06933 12.1134 8.69791 -0.0222326 0.00015383 -0.00730909
60 2 7.18339 9.83028 9.21832 -0.0164727 -0.00371623 0.0249407
61 1 7.17581 5.63349 8.49103 -0.001876 -0.00230807 -0.00503236
62 2 6.97785 5.34048 9.39518 0.0261526 -0.00923017 0.00851143
63 2 6.26096 5.9939 8.23176 -0.0226625 -0.00914234 0.0153669
64 1 5.04804 11.3607 8.02063 0.000668023 0.00553599 0.00160696
65 2 4.85592 11.5087 6.25316 -0.00137477 0.0143224 -0.0117501
66 2 4.54867 5.19737 6.82108 0.00342938 0.0173893 -0.00943779
67 1 10.879 9.37077 6.94789 0.00227157 -0.00733133 -0.00750502
68 2 11.7385 9.61235 6.4872 0.0101072 -0.00870694 -0.0017041
69 2 11.1542 9.47188 7.90094 -0.0235933 -0.0152115 -0.00655597
70 1 11.1848 13.8044 7.52915 -0.0043031 -0.000235388 0.000113827
71 2 10.6226 12.9596 7.53222 -0.00873207 0.0206071 0.0250182
72 2 11.269 4.34139 8.49257 -0.00120065 0.0195107 -0.0163493
73 1 9.03965 6.61464 6.43861 0.00622554 0.00250957 0.00334321
74 2 8.38948 6.14277 7.0169 -7.15934e-05 -0.00962269 0.0037242
75 2 9.58016 7.10267 7.13243 0.0260338 0.00356048 -0.00554958
76 1 11.5204 5.17829 9.88511 -0.00152969 0.000828942 -0.00583716
77 2 11.1364 6.09278 9.68692 -0.0393678 0.009035 -0.000196696
78 2 3.55132 6.72316 9.42618 0.00353289 0.00924027 0.0068679
79 1 11.9855 9.7475 9.49853 -0.00583702 0.00218493 -0.000540541
80 2 12.4396 8.93424 9.65676 -0.00189573 0.0146856 0.0214169
81 2 5.59134 10.5774 8.34249 -0.045591 -0.00233861 0.00510706
82 1 6.59503 4.75549 11.4796 -0.00371524 -0.0022126 0.00111873
83 2 7.49641 4.72825 11.676 -0.00293318 -0.00495695 -0.0120351
84 2 6.17029 4.9534 2.50251 0.0106493 -0.0161323 -0.0119989
85 1 9.91208 4.41543 2.21526 0.00624153 -0.000393015 -0.00465532
86 2 10.4361 4.84039 2.88502 0.0110265 -0.016066 0.0253357
87 2 10.9285 4.89397 10.6346 0.0317403 0.0156781 0.00582754
88 1 7.20225 13.35 6.62088 -0.00261973 -0.00471318 -0.0011178
89 2 6.30627 13.0564 6.53681 0.0147979 0.0108715 -0.00481991
90 2 7.2171 13.8032 7.47369 0.0167971 0.00958848 0.00763166
91 1 4.9924 7.81726 5.77786 0.00091996 0.00190135 0.00157369
92 2 3.42352 8.86693 5.25741 0.0175549 -0.0046754 0.0108585
93 2 4.81199 7.24267 6.54088 0.00814712 0.0175679 -0.016922
94 1 4.48985 5.7399 7.64036 0.00524707 -0.00569707 -0.00493174
95 2 4.51637 5.009 8.29963 -0.0233282 -0.00576186 0.00114124
96 2 5.13545 7.14364 5.05108 0.00441406 -0.00685463 0.00822369
ITEM: TIMESTEP
4
ITEM: NUMBER OF ATOMS
96
ITEM: BOX BOUNDS pp pp pp
2.9236100000000000e+00 1.2773600000000000e+01
4.0306300000000004e+00 1.3880599999999999e+01
2.1372399999999998e+00 1.1987200000000000e+01
ITEM: ATOMS id type x y z vx vy vz
1 1 8.57692 12.2003 4.34313 0.000585272 0.00375754 -0.00187911
2 2 7.91976 11.5848 3.99188 0.0111273 -0.0254944 -0.00647301
3 2 9.95696 13.2873 2.35416 -0.00563972 -0.013015 0.00719381
4 1 3.28078 12.086 11.8354 -0.000157931 -0.00789036 0.00685488
5 2 12.6653 11.3994 11.2836 -0.00449532 -0.0264928 0.0319174
6 2 12.5184 12.0042 2.8022 0.00265432 -0.0260752 -0.00785121
7 1 12.7458 7.36624 2.89856 -0.00622729 -0.000942864 0.00497146
8 2 11.9559 7.06641 3.42881 0.00680125 -0.013513 -0.0122223
9 2 8.22488 8.05665 6.40798 -0.0151279 -0.00765049 0.00427455
10 1 7.57514 8.80414 6.21189 0.003653 0.0104036 -0.000262135
11 2 6.72678 8.42221 5.95609 -0.0105187 0.00915806 0.00466925
12 2 7.21583 9.07476 7.827 0.0283811 0.0161786 0.00187955
13 1 6.11891 8.28552 2.46039 -0.00164554 0.00261959 0.00383549
14 2 5.69772 8.2406 11.4951 -0.0189223 -0.00852388 -0.0148903
15 2 5.93151 7.45234 2.94387 0.00843191 0.00333541 -0.00525336
16 1 8.92455 7.44987 2.45495 -0.004635 0.000561815 0.00155187
17 2 9.02434 6.49123 2.35615 -0.00206413 -0.0099331 0.0048533
18 2 8.00825 7.5653 2.78115 0.0130596 0.00145504 0.00734715
19 1 3.75147 7.39866 10.0954 0.0093154 0.00299905 0.000537364
20 2 3.21742 7.0988 10.8517 0.00885889 0.00927045 -0.00259665
21 2 11.4102 9.89432 10.196 -0.00570978 -0.0136278 -0.00541739
22 1 9.90632 9.8072 11.5003 0.000698977 -0.00469952 0.00213288
23 2 9.99027 10.4624 2.35837 0.00102605 0.0297879 0.00778824
24 2 9.39249 9.04708 11.8467 0.00166117 0.0108989 -0.00191882
25 1 12.6634 9.65939 5.15302 -0.00353137 -0.00494359 -0.00356176
26 2 3.45605 10.4226 5.36113 0.0016804 0.0321197 -0.00498533
27 2 4.23544 6.26485 3.4763 -0.0238999 -0.0144698 0.0113984
28 1 11.2294 5.64752 4.31728 -0.00259596 -1.02093e-05 -0.00308435
29 2 11.9177 5.06147 4.74694 0.0121124 0.00965235 -0.0328435
30 2 10.6162 5.8599 5.04294 0.00392992 -0.016618 0.0205504
31 1 4.50728 11.6626 5.33964 -0.00792455 0.00128415 -0.00872365
32 2 3.71325 13.3363 5.58141 0.00078604 -0.00110633 0.00370081
33 2 5.20035 11.2796 4.70507 0.0152169 -0.0114629 -0.0330297
34 1 4.75888 13.3266 9.81671 -0.00235484 -0.00412495 0.00334702
35 2 4.1708 12.893 10.5058 0.0488796 0.0117627 -0.0122929
36 2 5.26797 4.22759 10.2647 0.0136178 -0.0115469 0.00230899
37 1 8.16126 11.0719 9.72011 -0.00229832 0.00679056 -0.00173031
38 2 8.75514 11.2907 8.95497 0.000431991 -0.0156648 0.0147553
39 2 8.72959 10.708 10.391 -0.00244006 0.0114976 -0.0185359
40 1 3.35614 4.37438 5.7231 0.00994847 0.00126842 0.00427258
41 2 4.67596 5.32325 4.57414 -0.0241982 0.0162931 0.0186388
42 2 12.6249 4.25581 6.55571 -0.00693 -0.0195264 0.00392053
43 1 5.05204 5.882 3.83734 -0.00215648 0.00339705 0.00172529
44 2 3.01357 8.30219 3.19983 -0.0260376 -0.00772237 -0.0037386
45 2 8.21877 12.5891 5.19202 -0.0139768 -0.00298307 -7.73784e-05
46 1 9.68015 11.5493 7.36945 0.00377783 -0.00140952 -0.0100704
47 2 9.0082 11.7285 6.70989 0.0012128 -0.0315686 0.000224853
48 2 10.0787 10.5984 6.98344 -0.03469 0.0693631 0.0270689
49 1 9.22599 7.16469 9.39979 -0.00185615 0.00556738 0.00167901
50 2 8.51448 6.57369 9.0933 -0.0195999 0.00146499 -0.026216
51 2 9.13381 7.20298 10.3866 -0.0208372 -0.000264847 -0.00791365
52 1 10.9018 11.3935 3.55809 0.000642353 -0.00163259 0.00709546
53 2 10.2674 12.0416 3.99634 -0.0105783 0.00683814 0.000246291
54 2 11.2395 10.825 4.25598 -0.00866129 -0.00304402 -0.0155534
55 1 6.15118 11.2467 3.26601 0.0112594 -0.00347404 0.010891
56 2 6.19686 10.2987 3.01119 -0.0068301 0.0221701 0.0201842
57 2 5.26344 11.4809 2.92294 0.0183394 -0.018864 -0.017126
58 1 6.62795 9.27477 8.60498 -0.00136303 0.000654866 0.000698464
59 2 5.05846 12.1125 8.69402 -0.0211709 -0.00348792 -0.00794397
60 2 7.17565 9.82872 9.23127 -0.0147438 -0.00268356 0.0265734
61 1 7.17473 5.63234 8.48853 -0.00243775 -0.0022985 -0.00494942
62 2 6.99124 5.3356 9.39956 0.0274037 -0.0101761 0.00863728
63 2 6.2509 5.98901 8.23931 -0.0173976 -0.0105043 0.0148773
64 1 5.04837 11.3635 8.0214 0.000599462 0.00562181 0.00142269
65 2 4.85539 11.5158 6.24808 -0.000710494 0.0138242 -0.00876864
66 2 4.55013 5.20675 6.81601 0.00241076 0.0197072 -0.0110099
67 1 10.8802 9.36692 6.94423 0.00235163 -0.00802363 -0.00716305
68 2 11.7445 9.60846 6.48483 0.0135003 -0.00708229 -0.00736102
69 2 11.1423 9.46396 7.89881 -0.0242228 -0.0164638 -0.00241654
70 1 11.1826 13.8043 7.52923 -0.00427282 -0.000226145 0.000196202
71 2 10.6188 12.9706 7.5451 -0.00692443 0.0230113 0.0263905
72 2 11.2681 4.35034 8.48335 -0.00251875 0.016436 -0.0201513
73 1 9.0428 6.61591 6.44039 0.00635297 0.00255734 0.00378396
74 2 8.39005 6.13817 7.01812 0.00267453 -0.00849869 0.00110135
75 2 9.59269 7.10356 7.12872 0.02382 -0.000109305 -0.00925142
76 1 11.5196 5.17882 9.88222 -0.0017858 0.00136148 -0.00574529
77 2 11.1171 6.09602 9.68668 -0.0373049 0.00349351 -0.00080012
78 2 3.55345 6.72811 9.42973 0.00495491 0.0102927 0.0070775
79 1 11.9826 9.74866 9.49811 -0.00560811 0.00245941 -0.00116392
80 2 12.4395 8.94037 9.66797 0.00147486 0.00970744 0.0232423