ITEM: TIMESTEP
0
ITEM: NUMBER OF ATOMS
96
ITEM: BOX BOUNDS pp pp pp
2.9236100000000000e+00 1.2773600000000000e+01
4.0306300000000004e+00 1.3880599999999999e+01
2.1372399999999998e+00 1.1987200000000000e+01
ITEM: ATOMS id type x y z vx vy vz
1 1 5.11637 13.8155 3.0005 -0.000386522 0.0044229 -0.00207182
2 2 4.84487 12.9338 3.24297 0.00583988 0.0170862 0.0200386
3 2 11.2129 13.43 3.05212 -0.00449035 0.00679878 -0.00747967
4 1 3.00521 9.87129 11.7147 -0.000122705 0.00145413 -0.00287161
5 2 11.9326 10.1014 11.4821 -0.00990568 0.00521857 -0.0132961
6 2 3.02057 9.19984 2.59858 0.0125906 0.00410198 -0.00378252
7 1 12.7521 7.45621 3.03257 0.000548585 0.000730112 -0.00208436
8 2 11.8671 7.01135 3.04602 -0.0220239 -0.0172856 0.00314608
9 2 8.74169 8.80288 7.10945 0.0262221 0.022789 -0.00366901
10 1 7.83418 9.11262 7.07741 -0.00571101 -0.00101815 -0.00469631
11 2 7.08919 7.8712 6.99555 -0.0171171 -0.0273454 -0.0335779
12 2 7.65956 9.46612 8.00228 0.00178526 -0.0112294 -0.015091
13 1 6.73432 9.5451 3.642 -0.0053211 0.000291923 0.00662992
14 2 6.07803 9.08673 4.19589 0.0158586 -0.00650885 -0.023772
15 2 6.9359 8.90265 2.87973 -0.00581422 0.0103266 -0.0101231
16 1 9.75937 7.3047 10.6532 -0.00333526 -0.00515972 -0.00317467
17 2 9.989 6.96824 11.5596 -1.07443e-05 -0.0161783 0.023607
18 2 8.76326 7.23043 10.6208 -0.00381153 -0.0142432 0.00449499
19 1 4.4979 6.62066 10.799 -0.00764828 4.89056e-05 -0.00258298
20 2 3.96484 6.94557 11.5556 0.018767 0.00299501 0.0103253
21 2 4.18672 8.47667 10.077 -0.034516 0.020226 0.0449475
22 1 10.1483 10.2212 11.118 -0.001246 -0.000736011 0.00436507
23 2 9.79755 10.0961 2.21988 -0.00889059 0.000904222 -0.0257804
24 2 10.0982 9.31755 10.6939 -0.00822304 0.0168703 0.0137971
25 1 4.31729 7.88254 5.45221 -0.00129911 -0.000595924 0.00114624
26 2 3.64106 8.04755 6.11368 0.0330663 0.0103308 0.00363707
27 2 3.66214 6.27027 5.53764 -0.0310043 -0.0156167 0.00194158
28 1 10.1245 6.87146 3.62049 -0.000216025 -0.00617987 -0.00115409
29 2 9.40092 6.21637 3.9195 -0.00763702 0.00695211 -0.02062
30 2 9.78808 7.78597 3.85831 -0.0125418 -0.0240728 0.00441086
31 1 11.5093 10.8831 5.28236 -0.00343187 0.00183834 -0.00456983
32 2 11.0392 11.7497 5.18875 -0.0111167 0.00138648 -0.039608
33 2 12.2179 10.9652 4.64714 0.005684 0.0194362 0.0171611
34 1 7.50193 4.55248 10.5644 0.0106878 0.000796693 -0.00349632
35 2 7.66569 13.5016 10.3705 0.00677976 -0.00520089 0.0199628
36 2 6.73817 4.59627 11.2328 0.0153841 0.00183047 0.00794992
37 1 8.55073 11.9438 9.95787 0.000201449 -0.00421101 -0.00314067
38 2 8.94816 12.6506 9.34891 -0.0292961 0.00671118 -0.0050355
39 2 9.32176 11.4217 10.3627 0.01243 0.00554977 0.0171745
40 1 11.0342 13.7992 4.90914 -0.00352769 0.00248725 0.00111575
41 2 11.8704 4.28545 5.31446 0.00675941 0.00693045 -0.0108124
42 2 10.4665 4.69697 4.7058 -0.00752615 0.00852754 0.00987773
43 1 3.4888 5.32998 5.37056 0.00630239 0.0018567 -0.00804922
44 2 3.2093 7.41039 3.93944 0.0200797 0.00275177 -0.0243112
45 2 4.88469 4.48549 3.74901 -0.00147866 0.00726185 0.00258761
46 1 9.89973 13.2983 8.02461 -0.00399403 -0.000159247 -6.93497e-05
47 2 9.48564 12.9895 7.2199 -0.00131504 -0.0106641 -0.0101851
48 2 10.7589 12.7852 8.06359 -0.0131716 -0.0280459 0.0044392
49 1 11.0413 5.90044 8.72856 0.00536007 -0.000255118 -0.00135772
50 2 10.6415 5.0769 8.49344 0.0121423 -0.0131069 0.0125617
51 2 10.4742 6.25654 9.51158 -0.0122857 -0.00700026 -0.0122087
52 1 9.45629 9.46858 3.84617 0.00280588 -0.00631154 -0.00380085
53 2 10.089 9.96795 4.39399 -0.0190381 0.00942443 -0.0132775
54 2 8.57455 9.62813 4.26515 -0.0108747 -0.0135692 0.00985747
55 1 4.51936 11.1217 3.61023 0.00143713 -0.000953638 0.00483308
56 2 5.42974 10.7208 3.50276 0.00462768 -0.00260014 0.00914706
57 2 3.96427 10.7196 2.91199 0.0192619 0.0102628 -0.0113579
58 1 6.75685 9.97949 9.41956 -0.00015479 0.00112269 -0.00299684
59 2 5.11624 10.4639 6.83361 0.0041288 -0.0123428 -0.00709187
60 2 7.00615 10.8785 9.67465 -0.00902091 -0.00153907 -0.00697014
61 1 6.15784 4.78917 8.2552 -0.000623705 0.00232559 -0.00100856
62 2 6.51698 4.86389 9.18588 -0.0123769 -0.00908746 0.0142174
63 2 5.20818 4.50052 8.21664 -0.0125739 0.0101538 0.0343104
64 1 4.8028 11.36 6.50877 0.00398485 -0.00275723 0.00503942
65 2 4.55388 11.2659 5.57112 0.0233959 0.00249173 0.0204065
66 2 3.67611 12.5742 7.4014 0.00486911 -0.00728345 0.0309654
67 1 11.9545 10.6153 8.00858 0.00510158 -0.00150258 -0.00428464
68 2 11.887 10.707 7.03277 0.015902 -0.0095362 0.0158401
69 2 2.96628 10.1873 8.20349 -0.00193976 0.009968 -0.0109979
70 1 8.23703 5.34884 4.83645 0.00506003 0.00447426 -0.00349079
71 2 8.21576 4.46887 5.35757 -0.0111834 0.0543652 -0.0122847
72 2 7.71218 5.96404 5.32233 0.00608811 -0.0239181 0.00749681
73 1 10.4616 8.38279 7.31079 -0.00450093 -0.00129816 0.00447582
74 2 10.6205 7.78036 8.0548 -0.0204745 -0.0027336 0.00849792
75 2 11.027 9.17738 7.4524 0.0210917 0.0112831 -0.0214507
76 1 3.82749 4.05178 10.4123 0.00548568 -0.000681941 0.0076689
77 2 3.01945 13.4292 10.6032 -0.0125466 0.00891122 0.0208214
78 2 3.99642 5.81886 10.4966 0.0253888 -0.00432637 -0.017774
79 1 4.1034 9.24294 9.44552 0.00236157 -0.0011867 0.00891072
80 2 3.60428 9.86161 9.94336 -0.0003516 0.0381616 -0.00375882
81 2 5.77315 9.99704 9.28793 0.00372182 0.0190702 0.0487665
82 1 6.95601 7.87115 11.0756 0.0038957 0.00382067 0.00104428
83 2 6.15005 7.36683 10.9341 0.00492447 0.00390495 -0.0160414
84 2 7.06775 8.60635 10.4462 -0.0262523 8.44485e-05 0.0116895
85 1 11.2435 13.5327 11.9532 -0.0112118 -0.0027743 0.00387354
86 2 10.8917 4.59305 11.7706 -0.00747821 -0.0268271 0.0219252
87 2 4.36225 13.8376 11.2175 -0.0262185 -0.0144462 0.0128248
88 1 7.56977 13.0302 6.21601 -0.000995244 0.00225787 0.00318229
89 2 7.35044 12.1768 5.98533 0.00959388 0.0316419 -0.0432175
90 2 7.28635 13.213 7.10569 0.0520779 -0.00587602 -0.021615
91 1 6.42686 6.84799 6.63278 0.00137541 0.00629613 0.00400708
92 2 5.01272 7.36648 6.01586 0.0236022 0.00725947 -0.0224891
93 2 6.32521 6.28914 7.3948 -0.0203764 -0.00186034 0.00270196
94 1 3.59682 13.4906 7.73123 0.00192317 -0.000966307 -0.0024436
95 2 3.56699 13.4968 8.71188 -0.0353309 -0.0221276 -0.0110225
96 2 3.79626 4.85965 6.19605 0.0116244 -0.00734576 0.00387194
ITEM: TIMESTEP
1
ITEM: NUMBER OF ATOMS
96
ITEM: BOX BOUNDS pp pp pp
2.9236100000000000e+00 1.2773600000000000e+01
4.0306300000000004e+00 1.3880599999999999e+01
2.1372399999999998e+00 1.1987200000000000e+01
ITEM: ATOMS id type x y z vx vy vz
1 1 5.11623 13.8177 2.9994 -0.000164211 0.00455383 -0.00229168
2 2 4.84758 12.9411 3.25327 0.0050011 0.0117929 0.0210866
3 2 11.2106 13.4337 3.04898 -0.00482231 0.00750021 -0.00446517
4 1 3.00516 9.87201 11.7132 -8.16952e-05 0.00144144 -0.00297982
5 2 11.9271 10.1039 11.4759 -0.0115364 0.00436017 -0.0111298
6 2 3.026 9.2014 2.59609 0.00899377 0.00214551 -0.00619217
7 1 12.7523 7.45657 3.03149 0.000346389 0.000700755 -0.00225954
8 2 11.856 7.003 3.04769 -0.0212145 -0.0156109 0.00367845
9 2 8.75712 8.81337 7.10745 0.0344701 0.0194613 -0.004433
10 1 7.83118 9.1121 7.07502 -0.00620114 -0.0010683 -0.00485347
11 2 7.07796 7.8536 6.9772 -0.0275089 -0.0427647 -0.0392072
12 2 7.65975 9.46062 7.99527 -0.00110932 -0.010716 -0.0128901
13 1 6.73166 9.54519 3.64527 -0.00526163 8.74727e-05 0.00640691
14 2 6.08639 9.08318 4.18364 0.0167992 -0.00815233 -0.0244756
15 2 6.93231 8.9087 2.87583 -0.00845723 0.0138919 -0.0054908
16 1 9.75766 7.3021 10.6516 -0.00349566 -0.00526883 -0.00302543
17 2 9.98875 6.96057 11.5711 -0.00117023 -0.0141173 0.0212509
18 2 8.76218 7.22344 10.6233 -0.000432053 -0.0136541 0.00535394
19 1 4.49404 6.62069 10.7977 -0.00773977 9.61631e-05 -0.00267601
20 2 3.97436 6.94735 11.5611 0.0189688 0.00377358 0.011758
21 2 4.16952 8.48711 10.0987 -0.034223 0.0216738 0.0417213
22 1 10.1477 10.2207 11.1203 -0.00101746 -0.00104959 0.00460397
23 2 9.79327 10.0964 2.20582 -0.00857009 0.000362243 -0.0293119
24 2 10.0937 9.32652 10.7014 -0.00962343 0.0181639 0.0156283
25 1 4.31663 7.88224 5.45284 -0.00131627 -0.000587966 0.00131518
26 2 3.65693 8.05344 6.11534 0.0299888 0.0132604 0.00358549
27 2 3.6466 6.2629 5.53835 -0.0310198 -0.0130715 0.00111886
28 1 10.1243 6.86831 3.61991 -0.000391968 -0.00643217 -0.00118897
29 2 9.3978 6.22073 3.90904 -0.005016 0.00995713 -0.0211964
30 2 9.78204 7.77345 3.86037 -0.0115619 -0.0252635 0.00388141
31 1 11.5075 10.8841 5.28006 -0.00369635 0.00202918 -0.00464653
32 2 11.0344 11.7499 5.16902 -0.00805084 -0.000893586 -0.0390588
33 2 12.2211 10.975 4.65564 0.00735023 0.0196645 0.0167369
34 1 7.50716 4.55303 10.5627 0.0102166 0.00139965 -0.00321917
35 2 7.66913 13.4974 10.3807 0.00705549 -0.0114941 0.0208883
36 2 6.74717 4.59663 11.2359 0.0205952 -0.000278149 0.00432986
37 1 8.55082 11.9418 9.95625 0.000143145 -0.00398461 -0.0033098
38 2 8.93368 12.6529 9.34675 -0.0283428 0.0023593 -0.00358439
39 2 9.32744 11.4251 10.3708 0.00996409 0.00832544 0.0149868
40 1 11.0324 13.8004 4.90969 -0.00354906 0.00225806 0.00110285
41 2 11.8733 4.28949 5.30865 0.00470748 0.00913731 -0.0124985
42 2 10.463 4.70158 4.71105 -0.00639864 0.00968258 0.0111394
43 1 3.49198 5.33081 5.36659 0.00642436 0.00138983 -0.00781824
44 2 3.21997 7.41173 3.92803 0.0225814 0.00249472 -0.0208863
45 2 4.88348 4.48995 3.75115 -0.00325017 0.0105484 0.00565378
46 1 9.89781 13.2982 8.02462 -0.00370024 -0.000373346 8.9308e-05
47 2 9.48496 12.9842 7.21459 -0.00130637 -0.0105018 -0.0106672
48 2 10.7511 12.7716 8.06546 -0.0182293 -0.0263536 0.00311093
49 1 11.0439 5.90042 8.72798 0.00520464 0.000151414 -0.000988727
50 2 10.6473 5.0694 8.49918 0.0111635 -0.0167188 0.0103469
51 2 10.4688 6.25298 9.50467 -0.00916745 -0.00702625 -0.0152392
52 1 9.45767 9.46545 3.84428 0.00266789 -0.00619767 -0.00374231
53 2 10.0799 9.97269 4.38774 -0.0172381 0.00961541 -0.0116297
54 2 8.56907 9.6212 4.26961 -0.0104643 -0.0142647 0.00765345
55 1 4.52015 11.1213 3.61273 0.00170608 -0.000807702 0.00516079
56 2 5.43171 10.7196 3.50736 0.003197 -0.00195944 0.0093066
57 2 3.97375 10.7251 2.90594 0.0185295 0.0115862 -0.0128786
58 1 6.75674 9.98004 9.41802 -0.000294321 0.00110478 -0.00314038
59 2 5.11764 10.4593 6.82891 0.0015398 -0.00622499 -0.0115463
60 2 7.00239 10.8782 9.67139 -0.00567288 0.00071914 -0.00598295
61 1 6.15752 4.79031 8.25466 -0.000678482 0.00223743 -0.00111993
62 2 6.51028 4.85908 9.19313 -0.0142653 -0.0100901 0.014397
63 2 5.20266 4.50569 8.23449 -0.00927281 0.0105708 0.0367944
64 1 4.80481 11.3585 6.51133 0.00406013 -0.00307641 0.00523245
65 2 4.566 11.2667 5.58182 0.0248121 0.00070233 0.0215402
66 2 3.67894 12.5704 7.41726 0.00643203 -0.00800815 0.0320142
67 1 11.9571 10.6145 8.00645 0.00508938 -0.00152118 -0.00420934
68 2 11.8953 10.7024 7.04062 0.0172052 -0.00855806 0.014633
69 2 2.96481 10.1925 8.19769 -0.00330767 0.0104798 -0.0118453
70 1 8.23962 5.35102 4.83467 0.00529169 0.00431205 -0.00368025
71 2 8.21017 4.49722 5.35075 -0.0108745 0.0570632 -0.014332
72 2 7.71427 5.95268 5.32699 0.00199557 -0.0206364 0.0111182
73 1 10.4593 8.38213 7.31302 -0.00451243 -0.00128687 0.00444448
74 2 10.6104 7.77877 8.05898 -0.0196522 -0.00336266 0.00813987
75 2 11.0374 9.18296 7.44206 0.0201964 0.010207 -0.0197661
76 1 3.83024 4.05143 10.4161 0.00547701 -0.000734339 0.00738042
77 2 3.01215 13.4336 10.6144 -0.0163156 0.00894714 0.0237485
78 2 4.00962 5.81679 10.4875 0.0269627 -0.00414939 -0.0185364
79 1 4.10466 9.24225 9.44992 0.00263272 -0.00153427 0.00876711
80 2 3.60327 9.88177 9.94233 -0.00310884 0.0417201 -0.00101338
81 2 5.77487 10.0062 9.31244 0.00272295 0.017284 0.0490425
82 1 6.95807 7.87304 11.0762 0.00430678 0.00369795 0.00147311
83 2 6.15177 7.36879 10.9255 0.0020095 0.00381661 -0.0182747
84 2 7.05393 8.60655 10.4516 -0.0287298 0.00117626 0.0096044
85 1 11.2379 13.5314 11.9551 -0.0112505 -0.00254479 0.00354869
86 2 10.8884 4.57829 11.7821 -0.00608894 -0.0310984 0.0235309
87 2 4.34964 13.8303 11.2249 -0.0238036 -0.0145446 0.0170262
88 1 7.56936 13.0314 6.21759 -0.000575447 0.00260259 0.00305431
89 2 7.35422 12.1907 5.9638 0.00530109 0.0231667 -0.0428901
90 2 7.31166 13.21 7.09537 0.0486232 -0.00608604 -0.0181394
91 1 6.42777 6.85148 6.63481 0.00222986 0.00760486 0.00408239
92 2 5.02579 7.37021 6.00425 0.028337 0.00763153 -0.0239354
93 2 6.31507 6.28793 7.39686 -0.0201016 -0.00282204 0.00558291
94 1 3.59778 13.4902 7.72997 0.00192104 -0.000775629 -0.00260139
95 2 3.54929 13.4853 8.70592 -0.035476 -0.0236746 -0.0123819
96 2 3.80163 4.85622 6.19731 0.00970631 -0.00612696 0.000775416
ITEM: TIMESTEP
2
ITEM: NUMBER OF ATOMS
96
ITEM: BOX BOUNDS pp pp pp
2.9236100000000000e+00 1.2773600000000000e+01
4.0306300000000004e+00 1.3880599999999999e+01
2.1372399999999998e+00 1.1987200000000000e+01
ITEM: ATOMS id type x y z vx vy vz
1 1 5.11621 13.8201 2.99821 4.2068e-05 0.00471066 -0.0024365
2 2 4.84987 12.9456 3.26406 0.00422236 0.0063032 0.0219385
3 2 11.2081 13.4375 3.04765 -0.00499991 0.00757908 -0.000343303
4 1 3.00513 9.87273 11.7117 -7.36605e-05 0.00146092 -0.00312378
5 2 11.9211 10.1058 11.471 -0.0120655 0.00307298 -0.00852795
6 2 3.02956 9.20199 2.59239 0.00516804 0.000210828 -0.00856824
7 1 12.7524 7.45691 3.03031 3.6551e-05 0.000626971 -0.00249502
8 2 11.8459 6.99574 3.0497 -0.0184887 -0.0129919 0.00451209
9 2 8.77616 8.82234 7.10502 0.0403414 0.0168386 -0.00537431
10 1 7.82798 9.11155 7.07256 -0.00647732 -0.00110843 -0.00499906
11 2 7.06168 7.82844 6.95634 -0.0370662 -0.057116 -0.0434629
12 2 7.65845 9.4554 7.98939 -0.00410553 -0.0101521 -0.0107887
13 1 6.72906 9.54519 3.64841 -0.0051135 -5.80318e-05 0.00610733
14 2 6.09483 9.07858 4.17141 0.0161472 -0.0106944 -0.0236599
15 2 6.92744 8.91654 2.87424 -0.0108178 0.0173981 -0.00108737
16 1 9.75587 7.29943 10.6502 -0.00363954 -0.00543264 -0.00275429
17 2 9.98783 6.95412 11.5809 -0.00260941 -0.0113573 0.0170849
18 2 8.76283 7.21678 10.6262 0.00294083 -0.0129321 0.00604219
19 1 4.49016 6.62076 10.7963 -0.00773547 0.000208252 -0.00278441
20 2 3.98381 6.94934 11.5674 0.0184964 0.00386596 0.0130873
21 2 4.1525 8.49834 10.1187 -0.0338413 0.0233303 0.0380568
22 1 10.1473 10.2202 11.1226 -0.000734693 -0.00126008 0.00475889
23 2 9.78898 10.0965 2.19057 -0.00900749 -0.000148087 -0.0304445
24 2 10.0886 9.33571 10.7095 -0.011009 0.0177655 0.0162653
25 1 4.31597 7.88195 5.45353 -0.00127029 -0.000582779 0.00139496
26 2 3.67105 8.06081 6.11727 0.0262344 0.0161917 0.00462447
27 2 3.63112 6.2572 5.53876 -0.0307887 -0.00911352 0.000707885
28 1 10.1241 6.86503 3.6193 -0.000522238 -0.0066881 -0.00125456
29 2 9.3959 6.22633 3.8983 -0.00282051 0.0118025 -0.0216946
30 2 9.77652 7.76071 3.86219 -0.010498 -0.0249205 0.0034408
31 1 11.5056 10.8851 5.27771 -0.00397493 0.00226134 -0.00474806
32 2 11.0311 11.7488 5.14969 -0.00508697 -0.00349997 -0.038062
33 2 12.2253 10.9849 4.66388 0.00934504 0.0195518 0.0161718
34 1 7.51215 4.55388 10.5612 0.00974372 0.00194864 -0.00295023
35 2 7.67275 13.4901 10.3914 0.00742193 -0.0171992 0.0217849
36 2 6.75877 4.59599 11.2371 0.0256327 -0.0021041 0.000817548
37 1 8.55087 11.9398 9.95456 8.34084e-05 -0.00379191 -0.00344074
38 2 8.91982 12.653 9.34533 -0.026841 -0.00196033 -0.00219285
39 2 9.33172 11.43 10.3777 0.00698323 0.0118287 0.0121475
40 1 11.0307 13.8015 4.91024 -0.00356289 0.00207759 0.00110502
41 2 11.8751 4.29459 5.30196 0.00240144 0.0111184 -0.0142503
42 2 10.4601 4.70665 4.71694 -0.00508626 0.0103925 0.0124188
43 1 3.49522 5.33137 5.36274 0.00654706 0.000811808 -0.00757113
44 2 3.23188 7.41288 3.91855 0.0249684 0.00205666 -0.0168006
45 2 4.88144 4.49604 3.75466 -0.00474077 0.013602 0.00791824
46 1 9.89603 13.2979 8.0247 -0.00341748 -0.000632907 0.000187863
47 2 9.48433 12.979 7.20923 -0.00109618 -0.0098671 -0.0103602
48 2 10.7407 12.7588 8.0667 -0.023322 -0.0243831 0.00196879
49 1 11.0465 5.90059 8.72757 0.00501865 0.000499212 -0.000642846
50 2 10.6527 5.06018 8.50379 0.0106392 -0.0197967 0.00809262
51 2 10.465 6.24951 9.49634 -0.00607971 -0.00664963 -0.0178409
52 1 9.45896 9.46238 3.84243 0.00242725 -0.00609048 -0.00364157
53 2 10.0718 9.97757 4.38236 -0.0149991 0.0099585 -0.00982935
54 2 8.56409 9.61387 4.2728 -0.00894894 -0.015193 0.0048365
55 1 4.52107 11.1209 3.61539 0.0019753 -0.000674931 0.00546739
56 2 5.43294 10.7188 3.51207 0.00174501 -0.00117534 0.00959351
57 2 3.9828 10.7312 2.89911 0.0175655 0.0128683 -0.0144699
58 1 6.75656 9.98059 9.41642 -0.000430495 0.00111307 -0.00326565
59 2 5.11778 10.4577 6.82206 -0.000831616 -0.000320896 -0.0155636
60 2 7.00048 10.8792 9.66867 -0.00170682 0.00319929 -0.00489489
61 1 6.15716 4.79141 8.25408 -0.000776213 0.00214247 -0.00114093
62 2 6.50271 4.8538 9.20028 -0.0157449 -0.0109469 0.01384
63 2 5.19891 4.51109 8.25343 -0.00562221 0.011055 0.0386285
64 1 4.80686 11.3569 6.514 0.00416114 -0.00339674 0.00551092
65 2 4.57869 11.2666 5.59266 0.0256666 -0.000987145 0.0209382
66 2 3.68254 12.5662 7.43341 0.00792512 -0.0089427 0.0321229
67 1 11.9596 10.6138 8.00437 0.00502196 -0.00152909 -0.00405952
68 2 11.9042 10.6984 7.0474 0.018094 -0.00711951 0.0116228
69 2 2.96297 10.1978 8.19164 -0.00341146 0.010315 -0.0119941
70 1 8.24232 5.35315 4.83277 0.00550553 0.00428307 -0.00394196
71 2 8.20489 4.52593 5.34324 -0.0099991 0.0557246 -0.0150062
72 2 7.71418 5.9434 5.33345 -0.00249401 -0.0157433 0.0145378
73 1 10.4571 8.3815 7.31523 -0.00449534 -0.00120156 0.00440596
74 2 10.6008 7.777 8.06294 -0.0185599 -0.00346726 0.00766246
75 2 11.0472 9.18759 7.43263 0.0183724 0.00758638 -0.0177982
76 1 3.83297 4.05105 10.4197 0.00536654 -0.000846613 0.00710763
77 2 3.00313 13.4381 10.6269 -0.0192383 0.00970942 0.0257827
78 2 4.02338 5.81471 10.4781 0.0276396 -0.00435408 -0.018802
79 1 4.10603 9.24141 9.45429 0.00280347 -0.00178373 0.00875478
80 2 3.60117 9.90333 9.94235 -0.00457881 0.0435735 0.000401435
81 2 5.77587 10.0143 9.33697 0.000916068 0.014971 0.0489266
82 1 6.96032 7.87485 11.0771 0.00466254 0.00352194 0.00190324
83 2 6.15206 7.37065 10.9158 -0.000645058 0.00353578 -0.0200988
84 2 7.03902 8.60753 10.4558 -0.0306111 0.00307555 0.00706135
85 1 11.2322 13.5302 11.9567 -0.0112399 -0.00243167 0.00320082
86 2 10.8856 4.56195 11.7941 -0.00560655 -0.0329369 0.0241775
87 2 4.33845 13.8231 11.2345 -0.0206647 -0.0143616 0.0214462
88 1 7.56919 13.0328 6.21906 -7.55674e-05 0.00299573 0.00274217
89 2 7.35574 12.2 5.94244 0.000690141 0.0139384 -0.0424249
90 2 7.33497 13.2069 7.08755 0.0442027 -0.00639001 -0.0118598
91 1 6.42909 6.85559 6.63686 0.00300441 0.00875147 0.0040945
92 2 5.04106 7.37411 5.99192 0.0321605 0.00805173 -0.0253602
93 2 6.30511 6.28632 7.40038 -0.019646 -0.00348938 0.00850189
94 1 3.59874 13.4898 7.72863 0.00191912 -0.00061156 -0.00273778
95 2 3.53151 13.4731 8.6995 -0.035678 -0.0244267 -0.0128865
96 2 3.80597 4.85352 6.19683 0.00757983 -0.00449188 -0.00292827
ITEM: TIMESTEP
3
ITEM: NUMBER OF ATOMS
96
ITEM: BOX BOUNDS pp pp pp
2.9236100000000000e+00 1.2773600000000000e+01
4.0306300000000004e+00 1.3880599999999999e+01
2.1372399999999998e+00 1.1987200000000000e+01
ITEM: ATOMS id type x y z vx vy vz
1 1 5.11628 13.8225 2.99696 0.000217042 0.0048737 -0.00248567
2 2 4.8518 12.9474 3.27521 0.0036376 0.00112046 0.0224927
3 2 11.2056 13.4412 3.04863 -0.00498882 0.00704379 0.00455605
4 1 3.00509 9.87347 11.7101 -9.87078e-05 0.00151207 -0.00330274
5 2 11.915 10.1069 11.4674 -0.0115789 0.00144081 -0.00558469
6 2 3.03117 9.20161 2.58752 0.00121843 -0.00174208 -0.0108375
7 1 12.7524 7.4572 3.029 -0.00035393 0.000515585 -0.00276506
8 2 11.8376 6.99001 3.0522 -0.0140996 -0.00957 0.00562097
9 2 8.79746 8.83021 7.10208 0.0432282 0.0151197 -0.00639396
10 1 7.8247 9.11099 7.07002 -0.0065094 -0.00115093 -0.00511025
11 2 7.0409 7.79648 6.93374 -0.0450721 -0.0692106 -0.0461427
12 2 7.65565 9.45047 7.98448 -0.00702499 -0.00965255 -0.00915906
13 1 6.72655 9.54513 3.65138 -0.00488701 -0.000132432 0.00575534
14 2 6.10254 9.07248 4.15998 0.0139521 -0.0141035 -0.0213617
15 2 6.92149 8.9261 2.87475 -0.0127743 0.0206247 0.00274816
16 1 9.75402 7.29667 10.6489 -0.00375752 -0.00563814 -0.00238282
17 2 9.98614 6.94921 11.5881 -0.00418014 -0.0080626 0.0114965
18 2 8.76512 7.21051 10.6293 0.00598171 -0.0120933 0.00651225
19 1 4.48631 6.6209 10.7949 -0.00764564 0.000386078 -0.00290187
20 2 3.99286 6.95121 11.5742 0.0174464 0.00325667 0.0142196
21 2 4.13568 8.51044 10.1368 -0.0333594 0.0250659 0.0340759
22 1 10.147 10.2195 11.125 -0.000398229 -0.00136439 0.00482388
23 2 9.78427 10.0963 2.17537 -0.0102568 -0.000593445 -0.0291144
24 2 10.0827 9.34428 10.7177 -0.0123561 0.015685 0.0156737
25 1 4.31536 7.88166 5.45423 -0.00117254 -0.000585053 0.00139565
26 2 3.68317 8.06963 6.11997 0.0222004 0.0190149 0.00659538
27 2 3.61581 6.25379 5.53906 -0.0303713 -0.00407218 0.000667147
28 1 10.1238 6.86162 3.61865 -0.000597355 -0.0069391 -0.00135013
29 2 9.39497 6.23253 3.88735 -0.00125726 0.0123069 -0.0220612
30 2 9.77154 7.74853 3.86381 -0.0093555 -0.0230356 0.00310574
31 1 11.5035 10.8863 5.27531 -0.00425205 0.00251914 -0.0048782
32 2 11.0293 11.7464 5.13096 -0.00235647 -0.00620061 -0.0366714
33 2 12.2305 10.9946 4.67181 0.0115454 0.0191039 0.0155849
34 1 7.5169 4.55498 10.5598 0.00929226 0.00240636 -0.00270779
35 2 7.67656 13.4802 10.4025 0.00783133 -0.0218076 0.0226907
36 2 6.7728 4.59452 11.2367 0.03019 -0.00356883 -0.00231388
37 1 8.5509 11.938 9.95281 7.00575e-06 -0.00363677 -0.00353016
38 2 8.90684 12.6509 9.34456 -0.0247974 -0.00596029 -0.00106559
39 2 9.33442 11.4369 10.383 0.00375218 0.0157529 0.00889671
40 1 11.0289 13.8025 4.9108 -0.00357507 0.00194683 0.00111918
41 2 11.8757 4.30061 5.2944 1.07773e-05 0.0128471 -0.0159827
42 2 10.4579 4.71197 4.72347 -0.00368517 0.0106602 0.013671
43 1 3.49853 5.33162 5.35902 0.0066705 0.000155573 -0.00732475
44 2 3.24494 7.41378 3.91123 0.0271056 0.00146063 -0.0124454
45 2 4.87874 4.50356 3.75907 -0.00589064 0.0161587 0.00910369
46 1 9.89439 13.2975 8.02481 -0.0031604 -0.000924054 0.000226284
47 2 9.48386 12.9743 7.20423 -0.000739806 -0.00876232 -0.00934045
48 2 10.7278 12.7472 8.06743 -0.0281155 -0.0223214 0.00104552
49 1 11.049 5.90092 8.72733 0.00480829 0.000766259 -0.000338787
50 2 10.6579 5.0496 8.50727 0.0106486 -0.0220319 0.0059275
51 2 10.4628 6.24633 9.48683 -0.00317463 -0.00589725 -0.0198979
52 1 9.4601 9.45936 3.84064 0.00210524 -0.00598803 -0.00349712
53 2 10.0649 9.98264 4.37791 -0.0124926 0.0103659 -0.00798237
54 2 8.56012 9.60601 4.27445 -0.00648298 -0.0162909 0.00152138
55 1 4.52212 11.1206 3.6182 0.0022327 -0.000549979 0.00574519
56 2 5.43345 10.7185 3.51695 0.000374962 -0.000305387 0.00998927
57 2 3.99132 10.7379 2.89147 0.0164369 0.0141398 -0.0160426
58 1 6.75631 9.98116 9.41476 -0.000568121 0.00115809 -0.0033704
59 2 5.11681 10.4589 6.81335 -0.00280331 0.00487949 -0.0189009
60 2 7.00068 10.8814 9.6665 0.0027012 0.00560889 -0.00382462
61 1 6.15674 4.79245 8.25352 -0.00090739 0.00204448 -0.00107063
62 2 6.49453 4.84813 9.20697 -0.0166631 -0.0116093 0.0126207
63 2 5.19703 4.51674 8.27312 -0.00192623 0.011533 0.0396847
64 1 4.80897 11.3551 6.51684 0.00427772 -0.00369313 0.00586376
65 2 4.59167 11.2657 5.60275 0.0259499 -0.00248972 0.0185551
66 2 3.68687 12.5615 7.44938 0.00936231 -0.00994119 0.0312798
67 1 11.9621 10.613 8.00239 0.00489963 -0.00152454 -0.00385073
68 2 11.9134 10.6953 7.05225 0.0185843 -0.00526617 0.00705693
69 2 2.9614 10.2028 8.1857 -0.00226628 0.00949517 -0.011446
70 1 8.24512 5.35531 4.83073 0.00568164 0.00442357 -0.0042594
71 2 8.20017 4.55294 5.33575 -0.00857506 0.0502207 -0.0142335
72 2 7.71178 5.93693 5.34152 -0.00699985 -0.00965391 0.0173885
73 1 10.4548 8.38093 7.31743 -0.0044604 -0.00105339 0.00435564
74 2 10.5919 7.7753 8.06664 -0.0172402 -0.00313425 0.00709725
75 2 11.0558 9.19055 7.42426 0.0157389 0.00371109 -0.0155448
76 1 3.83561 4.05059 10.4232 0.00515782 -0.00102375 0.00688345
77 2 2.99291 13.4433 10.6402 -0.0211014 0.0112802 0.0268601
78 2 4.03726 5.81243 10.4687 0.0274825 -0.00496236 -0.0185753
79 1 4.10746 9.24047 9.45868 0.00286875 -0.00191113 0.0088695
80 2 3.59869 9.92534 9.94273 -0.00465782 0.0434768 0.000454338
81 2 5.77579 10.0212 9.36136 -0.0014625 0.012218 0.0484982
82 1 6.96273 7.87656 11.0781 0.00494489 0.00330027 0.00231072
83 2 6.15112 7.37233 10.9054 -0.00278787 0.00315159 -0.0214035
84 2 7.02332 8.60963 10.4587 -0.0318845 0.00557627 0.00430519
85 1 11.2266 13.529 11.9583 -0.0111731 -0.00245372 0.00285482
86 2 10.8828 4.54535 11.8063 -0.00616487 -0.0320512 0.0237993
87 2 4.32897 13.816 11.2464 -0.017049 -0.0138668 0.025707
88 1 7.56929 13.0344 6.22034 0.000464376 0.0033748 0.00227174
89 2 7.35491 12.2046 5.92137 -0.00393005 0.00499537 -0.0415741
90 2 7.35587 13.2036 7.08351 0.0391355 -0.00684638 -0.00342425
91 1 6.43077 6.86023 6.6389 0.00366842 0.00967166 0.00403563
92 2 5.05796 7.37826 5.97889 0.0346777 0.00871156 -0.026833
93 2 6.29542 6.28444 7.40536 -0.0190911 -0.00400516 0.0114355
94 1 3.5997 13.4896 7.72723 0.001917 -0.000487468 -0.00285051
95 2 3.51362 13.4608 8.69304 -0.0359511 -0.0243096 -0.0125653
96 2 3.80921 4.85173 6.19438 0.00535574 -0.00258342 -0.00694292
ITEM: TIMESTEP
4
ITEM: NUMBER OF ATOMS
96
ITEM: BOX BOUNDS pp pp pp
2.9236100000000000e+00 1.2773600000000000e+01
4.0306300000000004e+00 1.3880599999999999e+01
2.1372399999999998e+00 1.1987200000000000e+01
ITEM: ATOMS id type x y z vx vy vz
1 1 5.11642 13.8249 2.99572 0.000349004 0.00502235 -0.00242624
2 2 4.85351 12.9467 3.28655 0.00335749 -0.00331183 0.0226472
3 2 11.2031 13.4445 3.05221 -0.00476448 0.00593207 0.00981848
4 1 3.00503 9.87424 11.7084 -0.000155594 0.00159429 -0.00350607
5 2 11.9095 10.1072 11.4654 -0.0102537 -0.000429841 -0.00242233
6 2 3.03078 9.20024 2.58155 -0.00274619 -0.00374413 -0.0129322
7 1 12.7521 7.45743 3.02755 -0.000791393 0.00037609 -0.00304236
8 2 11.8318 6.98617 3.05532 -0.00841991 -0.00554797 0.00696479
9 2 8.81939 8.83746 7.09862 0.0428062 0.0143804 -0.00737959
10 1 7.82147 9.1104 7.06745 -0.00628755 -0.00120556 -0.00517321
11 2 7.01661 7.75922 6.9102 -0.0507719 -0.0778201 -0.0470846
12 2 7.65143 9.44575 7.98023 -0.00970848 -0.00929427 -0.00825067
13 1 6.72417 9.54506 3.65416 -0.00460169 -0.000132181 0.00538168
14 2 6.10878 9.06447 4.15005 0.0104352 -0.0182394 -0.0177701
15 2 6.91467 8.93717 2.87699 -0.0142367 0.0233823 0.0057211
16 1 9.75212 7.29379 10.6478 -0.0038409 -0.00586959 -0.00193815
17 2 9.98365 6.94606 11.5923 -0.00571823 -0.00442942 0.00496077
18 2 8.76881 7.20468 10.6327 0.0083682 -0.0111619 0.0067222
19 1 4.48251 6.62114 10.7934 -0.00748445 0.000625857 -0.00302197
20 2 4.00126 6.9526 11.5816 0.0159375 0.00195513 0.0150575
21 2 4.11914 8.52341 10.1528 -0.0327665 0.0267053 0.0299487
22 1 10.1469 10.2188 11.1274 -1.42281e-05 -0.00136946 0.00480031
23 2 9.77872 10.0959 2.16145 -0.012294 -0.000941572 -0.0254761
24 2 10.0762 9.3514 10.7252 -0.0136389 0.0120975 0.013931
25 1 4.3148 7.88137 5.45492 -0.00103969 -0.000597013 0.00133234
26 2 3.69325 8.07983 6.12386 0.018304 0.0216112 0.009244
27 2 3.60075 6.25313 5.53943 -0.0298561 0.0015836 0.000915231
28 1 10.1235 6.85809 3.61795 -0.00061361 -0.00717447 -0.00147211
29 2 9.39465 6.23863 3.87624 -0.000470579 0.0113935 -0.0222584
30 2 9.76716 7.73767 3.8653 -0.00811756 -0.0197541 0.00287222
31 1 11.5014 10.8876 5.27284 -0.00451055 0.00278557 -0.0050383
32 2 11.0288 11.7426 5.11302 1.33467e-05 -0.00875037 -0.0349634
33 2 12.2368 11.004 4.67946 0.0138058 0.0183342 0.0150964
34 1 7.52144 4.55629 10.5585 0.00888377 0.00274208 -0.00250701
35 2 7.68058 13.4683 10.4141 0.00824946 -0.0249077 0.023609
36 2 6.78896 4.59242 11.2348 0.0339798 -0.00460085 -0.0048022
37 1 8.55088 11.9362 9.95103 -0.000102269 -0.0035211 -0.00357719
38 2 8.89502 12.647 9.34426 -0.0222417 -0.00937346 -0.000397067
39 2 9.33548 11.4458 10.3866 0.000584791 0.0197573 0.00551042
40 1 11.0271 13.8034 4.91136 -0.00359107 0.00186405 0.00114107
41 2 11.8751 4.30743 5.28598 -0.00228119 0.0143044 -0.0176103
42 2 10.4564 4.71731 4.73061 -0.00231233 0.0105186 0.0148474
43 1 3.50189 5.33153 5.35542 0.00679423 -0.000537766 -0.00709443
44 2 3.25899 7.41435 3.90611 0.0288574 0.000740462 -0.0082171
45 2 4.87555 4.5122 3.76377 -0.0066731 0.0180341 0.00905246
46 1 9.89287 13.297 8.02493 -0.00294192 -0.00123046 0.00020853
47 2 9.48359 12.9702 7.19989 -0.000309197 -0.00721909 -0.00773774
48 2 10.7126 12.7365 8.06775 -0.0322889 -0.0203703 0.000370099
49 1 11.0513 5.90136 8.72723 0.00458217 0.000936846 -9.1699e-05
50 2 10.6633 5.03815 8.50971 0.0112221 -0.0231929 0.00395808
51 2 10.4619 6.24362 9.47644 -0.000592191 -0.00481545 -0.0213263
52 1 9.46106 9.45639 3.83893 0.00172859 -0.00588777 -0.00331177
53 2 10.0593 9.98793 4.37438 -0.00989023 0.0107394 -0.00619132
54 2 8.5576 9.59757 4.27432 -0.00330835 -0.0174817 -0.00213563
55 1 4.5233 11.1203 3.62114 0.00246586 -0.000427536 0.00598667
56 2 5.43331 10.7185 3.52206 -0.000807476 0.000583424 0.0104707
57 2 3.99924 10.7453 2.88307 0.0152195 0.0154284 -0.0174955
58 1 6.75599 9.98175 9.41305 -0.00071427 0.00124929 -0.00345189
59 2 5.11498 10.4626 6.80316 -0.00421419 0.00892427 -0.0213522
60 2 7.00318 10.8848 9.66484 0.00734203 0.0076472 -0.00288373
61 1 6.15625 4.79345 8.25301 -0.00106178 0.00194686 -0.00091232
62 2 6.48605 4.84219 9.2129 -0.0168714 -0.012031 0.0108517
63 2 5.19698 4.52262 8.29312 0.00149926 0.0119324 0.0398564
64 1 4.81114 11.3532 6.51987 0.00439755 -0.0039428 0.00627116
65 2 4.60464 11.2641 5.61122 0.0257005 -0.00371334 0.0145177
66 2 3.6919 12.5563 7.46469 0.0107615 -0.0108276 0.0295243
67 1 11.9645 10.6123 8.00052 0.00472984 -0.00150827 -0.00360652
68 2 11.9228 10.6932 7.05446 0.0187135 -0.00307841 0.00135698
69 2 2.96071 10.2073 8.1802 -2.98145e-05 0.00811047 -0.0102624
70 1 8.248 5.35758 4.82851 0.00579995 0.00475315 -0.00460671
71 2 8.19631 4.57615 5.329 -0.00663443 0.0407409 -0.0120939
72 2 7.70718 5.93375 5.35084 -0.0111314 -0.00283055 0.0193173
73 1 10.4526 8.38045 7.31959 -0.00442082 -0.000857983 0.00428838
74 2 10.5836 7.77386 8.07004 -0.0157429 -0.00247623 0.00649863
75 2 11.0629 9.1913 7.41709 0.0124953 -0.00103062 -0.0130219
76 1 3.83812 4.05002 10.4266 0.00486081 -0.00126536 0.00673767
77 2 2.98203 13.4494 10.6538 -0.0217947 0.013663 0.0269689
78 2 4.05087 5.80975 10.4595 0.0266017 -0.00594826 -0.0178655
79 1 4.1089 9.23949 9.46316 0.00283704 -0.00190503 0.0090883
80 2 3.59651 9.94681 9.9428 -0.00339653 0.0414106 -0.000762229