ITEM: TIMESTEP
0
ITEM: NUMBER OF ATOMS
96
ITEM: BOX BOUNDS pp pp pp
2.9236100000000000e+00 1.2773600000000000e+01
4.0306300000000004e+00 1.3880599999999999e+01
2.1372399999999998e+00 1.1987200000000000e+01
ITEM: ATOMS id type x y z vx vy vz
1 1 5.11698 13.8112 3.0023 0.000811377 -0.00429989 0.00151024
2 2 4.83827 12.9121 3.22409 -0.00715213 -0.025168 -0.0176864
3 2 11.2169 13.4245 3.06129 0.00353546 -0.00368006 0.0094766
4 1 3.0054 9.86979 11.7175 0.000284267 -0.00157549 0.00273316
5 2 11.9398 10.0958 11.4971 0.00355423 -0.00545249 0.0161144
6 2 3.00471 9.19372 2.59999 -0.0187049 -0.00824841 -0.000864457
7 1 12.7515 7.4555 3.03456 -0.000573077 -0.000647335 0.00199377
8 2 11.8879 7.0293 3.0431 0.0176221 0.0176349 -0.00299033
9 2 8.72528 8.77636 7.11261 -0.00592137 -0.0302539 0.00298194
10 1 7.83924 9.11357 7.08196 0.00429942 0.000855896 0.00445035
11 2 7.09555 7.88282 7.02237 -0.00453895 -0.00401276 0.0191609
12 2 7.65515 9.47768 8.01927 -0.00660276 0.011553 0.0181854
13 1 6.73961 9.54456 3.63524 0.00517413 -0.000796891 -0.00678279
14 2 6.0646 9.09244 4.21754 -0.00971858 0.00562828 0.0183045
15 2 6.93893 8.8957 2.89435 0.000258966 -0.00400725 0.0186232
16 1 9.76254 7.30981 10.6564 0.00300234 0.00513776 0.00306044
17 2 9.98825 6.98566 11.5357 -0.00103654 0.0178029 -0.0219671
18 2 8.77016 7.24512 10.6173 0.0094378 0.014999 -0.00245756
19 1 4.50536 6.6206 10.8015 0.00716475 -0.000122673 0.0024627
20 2 3.94701 6.944 11.5467 -0.0161372 0.00042353 -0.00746705
21 2 4.22144 8.45761 10.0293 0.0348373 -0.0181586 -0.049839
22 1 10.1497 10.2215 11.1139 0.0015636 -0.000145633 -0.00368782
23 2 9.8074 10.0947 2.24 0.0112777 -0.00196075 0.0127749
24 2 10.105 9.30351 10.683 0.00545848 -0.00995722 -0.00719996
25 1 4.3185 7.88314 5.45133 0.00106082 0.000595338 -0.000534058
26 2 3.60592 8.04004 6.10885 -0.0359937 -0.00488297 -0.00710249
27 2 3.6928 6.28682 5.53445 0.0299272 0.0158223 -0.0048414
28 1 10.1245 6.8774 3.62164 -0.000210275 0.00570649 0.00116298
29 2 9.41136 6.21332 3.93953 0.0131841 0.00144457 0.0194721
30 2 9.80149 7.80748 3.85332 0.0141218 0.017863 -0.00558132
31 1 11.5125 10.8814 5.28687 0.00299388 -0.00163046 0.0044667
32 2 11.0534 11.7466 5.22843 0.0170593 -0.00418945 0.0392721
33 2 12.2135 10.9463 4.6298 -0.00366864 -0.0179781 -0.0171809
34 1 7.4908 4.5523 10.5682 -0.0115312 0.000411395 0.00399123
35 2 7.65904 13.5005 10.3516 -0.00670733 -0.00696114 -0.0177484
36 2 6.72785 4.59213 11.2214 -0.00571065 -0.00656448 -0.0144068
37 1 8.55046 11.9483 9.96081 -0.000360909 0.00474256 0.00271095
38 2 8.97788 12.6398 9.35526 0.0296354 -0.0144051 0.00734457
39 2 9.30757 11.418 10.3442 -0.015161 -0.00307102 -0.0189334
40 1 11.0377 13.7964 4.90799 0.00343999 -0.00307153 -0.00119296
41 2 11.862 4.28091 5.32373 -0.00957361 -0.00199707 0.00792852
42 2 10.4749 4.69001 4.69713 0.00898869 -0.00505393 -0.00754814
43 1 3.48262 5.32779 5.37881 -0.00606136 -0.00237791 0.00839441
44 2 3.19172 7.40757 3.96617 -0.0151937 -0.00269151 0.0278886
45 2 4.8842 4.48144 3.74993 -0.00254898 -0.00122405 0.00446826
46 1 9.90401 13.2983 8.02489 0.00454951 -9.46358e-05 0.000545724
47 2 9.48673 12.9999 7.2288 0.000636734 0.00971991 0.00688242
48 2 10.7674 12.8145 8.05767 0.00445283 0.0299725 -0.00752117
49 1 11.0358 5.90113 8.73029 -0.00556432 0.00113556 0.00207881
50 2 10.628 5.08622 8.47883 -0.0149868 0.00573668 -0.0163463
51 2 10.4895 6.26311 9.52048 0.0179708 0.00577393 0.00549938
52 1 9.45346 9.47501 3.84999 -0.00272573 0.00656235 0.00381525
53 2 10.1092 9.9585 4.40866 0.0207137 -0.00974605 0.0157331
54 2 8.58468 9.64128 4.25377 0.00827269 0.0130292 -0.0122253
55 1 4.51818 11.1228 3.60574 -0.000942516 0.0013046 -0.00414303
56 2 5.4238 10.7239 3.49363 -0.00705765 0.00328352 -0.00925876
57 2 3.94456 10.7107 2.92197 -0.0198397 -0.0073866 0.0087921
58 1 6.75686 9.97833 9.4224 -0.000138591 -0.00119915 0.00266064
59 2 5.1095 10.4821 6.83607 -0.00918124 0.0232031 -0.00206405
60 2 7.01777 10.8818 9.6824 0.0134061 0.00445702 0.00821651
61 1 6.15846 4.78677 8.25601 0.000674082 -0.00246956 0.000538901
62 2 6.5272 4.87187 9.17261 0.00792232 0.00681728 -0.011576
63 2 5.22344 4.49065 8.18533 0.0171116 -0.00978191 -0.0279424
64 1 4.79886 11.3625 6.50383 -0.00394006 0.0022276 -0.00491596
65 2 4.53241 11.2616 5.55339 -0.0191329 -0.00607838 -0.0138021
66 2 3.67288 12.5811 7.37237 -0.00151434 0.00681069 -0.026311
67 1 11.9494 10.6168 8.01286 -0.00499142 0.00144994 0.00419296
68 2 11.8728 10.717 7.01759 -0.0121272 0.0101109 -0.0127805
69 2 2.96571 10.1785 8.213 -0.00397173 -0.00717383 0.00750068
70 1 8.2322 5.34411 4.83983 -0.00461296 -0.00502125 0.00335346
71 2 8.22668 4.42084 5.36662 0.0101162 -0.0386779 0.00491365
72 2 7.70272 5.98932 5.31832 -0.0119121 0.0246019 -0.00090704
73 1 10.4661 8.38402 7.30629 0.00437192 0.00108441 -0.00452744
74 2 10.6415 7.78189 8.04606 0.0211977 -0.0002318 -0.0088921
75 2 11.006 9.16672 7.47527 -0.0201046 -0.00834834 0.0240571
76 1 3.82209 4.05246 10.4044 -0.00521909 0.00071334 -0.00816856
77 2 3.02768 13.4198 10.5861 0.0037169 -0.0103369 -0.0127578
78 2 3.97351 5.82368 10.5131 -0.0195903 0.00552846 0.0147985
79 1 4.10139 9.24372 9.43635 -0.0015986 0.000338841 -0.0095251
80 2 3.60085 9.82826 9.95102 -0.00782532 -0.027907 0.0124065
81 2 5.76938 9.97677 9.2399 -0.00282736 -0.0208475 -0.0467647
82 1 6.95256 7.86726 11.075 -0.00298229 -0.00390263 -0.000266645
83 2 6.14221 7.36312 10.9476 -0.010507 -0.00314872 0.0107803
84 2 7.09095 8.60641 10.4331 0.0196002 -0.000778888 -0.0138061
85 1 11.2546 13.5358 11.949 0.0110284 0.00346962 -0.00438024
86 2 10.9013 4.61363 11.7511 0.0121835 0.0129069 -0.0163885
87 2 4.38994 13.8517 11.2083 0.0280407 0.0135367 -0.00634208
88 1 7.57107 13.0282 6.21289 0.00146875 -0.00194032 -0.00286141
89 2 7.33716 12.1384 6.02887 -0.0161053 -0.0427925 0.043882
90 2 7.23204 13.2188 7.12769 -0.0551721 0.00579825 0.0193501
91 1 6.42639 6.84311 6.6289 0.000471363 -0.00340413 -0.00369357
92 2 4.99439 7.35976 6.03683 -0.0128472 -0.00581633 0.0193452
93 2 6.34568 6.28978 7.39486 0.0203785 -0.000760652 0.00258982
94 1 3.59489 13.4918 7.73349 -0.00192949 0.00138159 0.00206136
95 2 3.60221 13.5167 8.72076 0.0351389 0.0170853 0.00610409
96 2 3.78303 4.86767 6.18996 -0.0144428 0.0080664 -0.00722606
ITEM: TIMESTEP
1
ITEM: NUMBER OF ATOMS
96
ITEM: BOX BOUNDS pp pp pp
2.9236100000000000e+00 1.2773600000000000e+01
4.0306300000000004e+00 1.3880599999999999e+01
2.1372399999999998e+00 1.1987200000000000e+01
ITEM: ATOMS id type x y z vx vy vz
1 1 5.11743 13.8091 3.00298 0.000982955 -0.00432301 0.00122014
2 2 4.83459 12.8988 3.21555 -0.0074071 -0.0272486 -0.0164827
3 2 11.2185 13.4232 3.06593 0.00300188 -0.00143074 0.00846592
4 1 3.00557 9.86898 11.7189 0.000375784 -0.00167809 0.00269399
5 2 11.9406 10.0932 11.5054 -0.000767352 -0.0048103 0.0167549
6 2 2.9947 9.18905 2.599 -0.0210518 -0.0104972 -0.00300603
7 1 12.7512 7.4552 3.03557 -0.000397229 -0.000541962 0.00209986
8 2 11.8957 7.03792 3.04155 0.0126781 0.0164446 -0.00331371
9 2 8.72497 8.76033 7.1141 0.00423258 -0.0335554 0.00315993
10 1 7.84119 9.11397 7.08417 0.00350918 0.00073104 0.00440875
11 2 7.09054 7.87693 7.02993 -0.0154102 -0.0193006 0.0107921
12 2 7.65136 9.48341 8.02855 -0.00824907 0.0110767 0.0183415
13 1 6.74216 9.5441 3.63186 0.00498371 -0.00104773 -0.00669607
14 2 6.06081 9.09532 4.22572 -0.00502802 0.00611295 0.0140182
15 2 6.93838 8.89436 2.90458 -0.00235537 -0.0017637 0.0217894
16 1 9.764 7.31239 10.6579 0.00284831 0.00522792 0.00279964
17 2 9.98772 6.99455 11.5255 -0.000830399 0.0173417 -0.0179315
18 2 8.77543 7.25268 10.6163 0.0112459 0.0151733 -0.00136565
19 1 4.50886 6.62052 10.8027 0.00678146 -0.000220954 0.00244109
20 2 3.93946 6.94478 11.5433 -0.0137117 0.00289444 -0.00616328
21 2 4.23887 8.44872 10.0039 0.0348331 -0.0174776 -0.051499
22 1 10.1505 10.2213 11.1122 0.00167486 -0.000671353 -0.00328726
23 2 9.81344 10.0936 2.24438 0.0129692 -0.00242936 0.0043408
24 2 10.1074 9.29969 10.6804 0.004125 -0.0050243 -0.00294579
25 1 4.31898 7.88343 5.45116 0.000847062 0.000573859 -0.000104111
26 2 3.58787 8.03822 6.1046 -0.035497 -0.00253705 -0.0103074
27 2 3.70753 6.29434 5.53157 0.0286807 0.0134411 -0.0068787
28 1 10.1243 6.8802 3.62223 -0.000421265 0.00548873 0.00119195
29 2 9.41861 6.21522 3.94914 0.0156349 0.00620242 0.0190121
30 2 9.80871 7.81539 3.85039 0.0146197 0.0135204 -0.00611627
31 1 11.514 10.8806 5.28909 0.00283552 -0.0016298 0.00442617
32 2 11.0626 11.7443 5.2479 0.0197281 -0.00443107 0.0384032
33 2 12.2118 10.9376 4.62129 -0.00338626 -0.016782 -0.0166419
34 1 7.48494 4.55265 10.5702 -0.0118596 0.000941721 0.00416581
35 2 7.65564 13.4957 10.3431 -0.00697622 -0.011827 -0.0163098
36 2 6.72607 4.58823 11.2135 -0.00186905 -0.00902648 -0.0167149
37 1 8.55025 11.9507 9.96211 -0.000475662 0.00503492 0.00246472
38 2 8.99262 12.6318 9.35913 0.0290898 -0.0172824 0.00790538
39 2 9.29985 11.4165 10.3348 -0.0153418 -0.00358515 -0.0183592
40 1 11.0394 13.7948 4.90738 0.00336475 -0.00340949 -0.00125735
41 2 11.857 4.28056 5.32739 -0.010169 0.000626988 0.00683658
42 2 10.4795 4.688 4.69362 0.00927545 -0.00289909 -0.00652872
43 1 3.47962 5.32657 5.38304 -0.00594386 -0.00241937 0.00847782
44 2 3.1847 7.40628 3.98023 -0.0129779 -0.00241029 0.0276409
45 2 4.88241 4.48147 3.75303 -0.00459869 0.000938346 0.00767454
46 1 9.90635 13.2982 8.02523 0.00477613 -0.000125245 0.000841999
47 2 9.48691 13.0046 7.23165 -1.60185e-05 0.00876535 0.00425944
48 2 10.7687 12.8296 8.0535 0.00137129 0.0299743 -0.00921164
49 1 11.033 5.90181 8.73141 -0.00561074 0.00155342 0.00238499
50 2 10.6201 5.08824 8.47027 -0.0165566 0.00267766 -0.0176565
51 2 10.4991 6.26575 9.52238 0.0202223 0.00467508 0.00221549
52 1 9.45214 9.47832 3.85189 -0.00250471 0.00669837 0.00378965
53 2 10.1196 9.95352 4.41674 0.0203473 -0.01032 0.0163902
54 2 8.58822 9.6478 4.24753 0.00547721 0.0132006 -0.0124257
55 1 4.51776 11.1235 3.60376 -0.000732839 0.00151674 -0.00379322
56 2 5.42002 10.7256 3.48895 -0.0079187 0.00328467 -0.00953808
57 2 3.93465 10.7074 2.9261 -0.0196409 -0.00580098 0.00782309
58 1 6.75675 9.97772 9.42368 -0.000287302 -0.00124286 0.00247
59 2 5.10433 10.4948 6.83394 -0.011257 0.0269709 -0.00622677
60 2 7.02481 10.8842 9.68658 0.0143578 0.00482681 0.00832133
61 1 6.15882 4.78552 8.2562 0.000788818 -0.00251945 0.000200958
62 2 6.53057 4.87498 9.16734 0.00556965 0.0056145 -0.00919274
63 2 5.23234 4.48575 8.17224 0.0180017 -0.00992076 -0.0243198
64 1 4.79689 11.3636 6.50137 -0.00397888 0.00206921 -0.00497397
65 2 4.52347 11.2581 5.5476 -0.0164979 -0.00776501 -0.00900491
66 2 3.67256 12.5845 7.35999 0.000268769 0.00709891 -0.0229196
67 1 11.9469 10.6175 8.01493 -0.00489897 0.00142759 0.00403657
68 2 11.8673 10.722 7.01201 -0.00975728 0.00978366 -0.00889167
69 2 2.96278 10.1754 8.21619 -0.00791535 -0.00517799 0.00512404
70 1 8.22994 5.34152 4.84151 -0.0044231 -0.00531889 0.00339692
71 2 8.23147 4.40417 5.36795 0.00880647 -0.0271181 0.000202013
72 2 7.69628 6.00119 5.31858 -0.0133421 0.0219245 0.00163943
73 1 10.4683 8.38452 7.30402 0.00425907 0.000869934 -0.00454666
74 2 10.6521 7.78126 8.04158 0.021075 -0.00250484 -0.00903414
75 2 10.9963 9.16333 7.48757 -0.0184759 -0.00452091 0.0250392
76 1 3.81953 4.05283 10.4003 -0.00497083 0.000766496 -0.0083279
77 2 3.02841 13.4144 10.5809 -0.000601872 -0.011324 -0.00793715
78 2 3.96465 5.82664 10.52 -0.0155398 0.00632791 0.012644
79 1 4.1007 9.24378 9.43149 -0.00116206 -8.46372e-05 -0.00994319
80 2 3.59579 9.81571 9.95849 -0.0123372 -0.0225091 0.0175636
81 2 5.76832 9.96628 9.2169 -0.000964723 -0.0208093 -0.0449618
82 1 6.95119 7.86531 11.075 -0.00251466 -0.0038729 5.80291e-05
83 2 6.13633 7.36174 10.9523 -0.0127274 -0.00216896 0.00794727
84 2 7.09979 8.60569 10.4261 0.0155163 -0.00257643 -0.013689
85 1 11.2601 13.5376 11.9468 0.0109088 0.00387035 -0.00454317
86 2 10.9081 4.61803 11.7438 0.015038 0.004437 -0.0128396
87 2 4.4039 13.8583 11.2057 0.0271618 0.0127916 -0.00450249
88 1 7.57183 13.0272 6.21155 0.00148729 -0.0020424 -0.0024318
89 2 7.32852 12.1162 6.0509 -0.0179235 -0.0443548 0.0441634
90 2 7.20442 13.2217 7.13633 -0.0545964 0.00602728 0.0139465
91 1 6.42686 6.84178 6.62711 0.00142653 -0.00189898 -0.00346128
92 2 4.98934 7.35713 6.04608 -0.00738081 -0.00430729 0.0176313
93 2 6.35583 6.28903 7.39675 0.020116 -0.0022663 0.0047875
94 1 3.59392 13.4925 7.73447 -0.00193513 0.00159038 0.00183067
95 2 3.61976 13.5245 8.72305 0.0350623 0.0138377 0.00292832
96 2 3.77556 4.87163 6.18621 -0.015198 0.00743283 -0.0071256
ITEM: TIMESTEP
2
ITEM: NUMBER OF ATOMS
96
ITEM: BOX BOUNDS pp pp pp
2.9236100000000000e+00 1.2773600000000000e+01
4.0306300000000004e+00 1.3880599999999999e+01
2.1372399999999998e+00 1.1987200000000000e+01
ITEM: ATOMS id type x y z vx vy vz
1 1 5.11796 13.8069 3.00352 0.00111153 -0.00440337 0.000953226
2 2 4.83086 12.8849 3.20761 -0.00730113 -0.0277606 -0.0152875
3 2 11.2199 13.4231 3.06976 0.00248421 0.00112194 0.00632239
4 1 3.00578 9.86811 11.7202 0.000447506 -0.00180359 0.00266738
5 2 11.939 10.091 11.5139 -0.00542715 -0.00370137 0.0169282
6 2 2.98366 9.18322 2.59698 -0.0228349 -0.0128774 -0.00499752
7 1 12.7511 7.45496 3.03666 -0.00011934 -0.000406223 0.00230735
8 2 11.9006 7.04574 3.03979 0.00636786 0.0145822 -0.0038342
9 2 8.72951 8.7428 7.11577 0.0129684 -0.036065 0.00370738
10 1 7.84275 9.1143 7.08637 0.00275257 0.000568653 0.00444624
11 2 7.08014 7.86352 7.03316 -0.0259644 -0.0339793 0.00193596
12 2 7.6469 9.48876 8.03761 -0.00924348 0.0100024 0.0171669
13 1 6.74459 9.54351 3.62854 0.0047334 -0.00126302 -0.00649901
14 2 6.05957 9.09855 4.23156 0.000304607 0.00698464 0.00911214
15 2 6.93657 8.89394 2.91614 -0.00467617 -0.000446489 0.0238267
16 1 9.76539 7.31504 10.6592 0.00271452 0.00537783 0.00242466
17 2 9.98742 7.003 11.5178 -0.000174768 0.0161467 -0.0120465
18 2 8.78141 7.26029 10.6159 0.0122103 0.0152272 -0.000269637
19 1 4.51214 6.62038 10.8039 0.0063193 -0.000340856 0.00244523
20 2 3.9333 6.94689 11.5405 -0.0106172 0.00572162 -0.00499347
21 2 4.25627 8.44013 9.9778 0.0346706 -0.0169048 -0.0526764
22 1 10.1514 10.2208 11.1106 0.00177396 -0.00121749 -0.00287484
23 2 9.82037 10.0923 2.24434 0.0147032 -0.00284541 -0.00450972
24 2 10.1091 9.29849 10.6801 0.0028346 0.00027767 0.00152321
25 1 4.31935 7.88371 5.45123 0.000583336 0.000532324 0.000389578
26 2 3.57042 8.0375 6.09854 -0.0336453 -0.000523838 -0.0142198
27 2 3.72148 6.30026 5.52757 0.0269267 0.00960665 -0.00922178
28 1 10.1241 6.88289 3.62283 -0.000602478 0.00528198 0.00122301
29 2 9.42699 6.21952 3.95854 0.0175967 0.0109071 0.0186941
30 2 9.81611 7.821 3.8472 0.0148436 0.00892035 -0.00653918
31 1 11.5153 10.8798 5.2913 0.00272139 -0.00170159 0.00438329
32 2 11.0731 11.7422 5.26683 0.022102 -0.00381128 0.0371139
33 2 12.2101 10.9295 4.61316 -0.00357677 -0.0153116 -0.0156948
34 1 7.47894 4.55324 10.5724 -0.012101 0.00138374 0.00426551
35 2 7.65206 13.4887 10.3353 -0.00746355 -0.0153744 -0.0145653
36 2 6.72598 4.5831 11.2047 0.000926592 -0.0114487 -0.0180896
37 1 8.54998 11.9533 9.96327 -0.000614918 0.00533523 0.00220839
38 2 9.00697 12.6225 9.36317 0.0281482 -0.0193113 0.00793976
39 2 9.29223 11.4144 10.3258 -0.0148437 -0.00524067 -0.0168527
40 1 11.0411 13.793 4.90673 0.00326529 -0.00376125 -0.00133688
41 2 11.8518 4.28154 5.33057 -0.0101971 0.00326541 0.00600772
42 2 10.4842 4.68711 4.6906 0.00928497 -0.000632331 -0.00562037
43 1 3.47668 5.32537 5.38729 -0.00583021 -0.00232557 0.00848772
44 2 3.17874 7.40516 3.99381 -0.0109835 -0.00199904 0.0259512
45 2 4.8796 4.48238 3.7576 -0.00653985 0.00222247 0.0102108
46 1 9.90879 13.2982 8.02573 0.00494626 -9.25294e-05 0.00115702
47 2 9.48671 13.0087 7.23306 -0.000801374 0.00763084 0.00123171
48 2 10.7688 12.8445 8.04846 -0.000559852 0.0292474 -0.010966
49 1 11.0302 5.90268 8.73267 -0.00562018 0.00192279 0.00262491
50 2 10.6114 5.0889 8.46117 -0.0180271 0.000414038 -0.0184341
51 2 10.5097 6.26779 9.5227 0.0218829 0.00337569 -0.000717216
52 1 9.45096 9.48171 3.85378 -0.00217598 0.00683959 0.00375673
53 2 10.1295 9.94818 4.42505 0.0190838 -0.0111612 0.0166098
54 2 8.59016 9.65448 4.24134 0.00199309 0.0136335 -0.0120807
55 1 4.51745 11.1243 3.60195 -0.000555129 0.00175601 -0.00344707
56 2 5.41588 10.7272 3.48409 -0.0084841 0.00305501 -0.00996228
57 2 3.92492 10.7049 2.92979 -0.0191206 -0.00411183 0.00707843
58 1 6.75657 9.97709 9.42487 -0.000430503 -0.00128443 0.00226586
59 2 5.09824 10.5091 6.82984 -0.0127931 0.0290538 -0.00976987
60 2 7.03213 10.8866 9.69072 0.0145164 0.00441838 0.00803159
61 1 6.15925 4.78425 8.25621 0.000964853 -0.00255106 -0.000187901
62 2 6.53277 4.87748 9.16342 0.00322295 0.00439128 -0.00622959
63 2 5.24144 4.48073 8.16101 0.0178749 -0.0103042 -0.0205534
64 1 4.79488 11.3646 6.49886 -0.00406017 0.00201273 -0.00509712
65 2 4.51591 11.2538 5.54439 -0.0137089 -0.00932471 -0.00375405
66 2 3.67315 12.5882 7.34945 0.00210753 0.00767118 -0.0190013
67 1 11.9445 10.6182 8.0169 -0.00480746 0.00141611 0.00382441
68 2 11.863 10.7268 7.0087 -0.00717031 0.00914146 -0.0038979
69 2 2.95779 10.1733 8.21812 -0.0119943 -0.00304689 0.00256895
70 1 8.22778 5.33879 4.84323 -0.00426498 -0.00558169 0.00349602
71 2 8.23549 4.39372 5.36682 0.00706197 -0.0142276 -0.0047193
72 2 7.68938 6.01124 5.31996 -0.0137748 0.0174524 0.00356455
73 1 10.4704 8.38489 7.30174 0.00412597 0.00060264 -0.00455649
74 2 10.6626 7.77939 8.03703 0.0206357 -0.00517801 -0.00925256
75 2 10.9875 9.1622 7.50031 -0.0163996 0.000489193 0.0258411
76 1 3.81712 4.05323 10.3961 -0.00467168 0.000822187 -0.00840463
77 2 3.02708 13.4085 10.5782 -0.00437535 -0.0121498 -0.00282819
78 2 3.95797 5.83001 10.5257 -0.010927 0.00708593 0.0101149
79 1 4.10023 9.24364 9.42641 -0.000731643 -0.000459858 -0.0103881
80 2 3.58851 9.80575 9.96858 -0.0164329 -0.0178257 0.0226415
81 2 5.76842 9.95596 9.19494 0.00166328 -0.0201824 -0.0426269
82 1 6.95005 7.86339 11.0751 -0.0020595 -0.00381017 0.000333586
83 2 6.12948 7.36095 10.9555 -0.0143509 -0.000749171 0.00509183
84 2 7.10647 8.60383 10.4194 0.0110302 -0.00520616 -0.0128212
85 1 11.2655 13.5397 11.9445 0.0107886 0.00426057 -0.00464365
86 2 10.9163 4.61807 11.7383 0.0179007 -0.00417383 -0.00906946
87 2 4.4171 13.8645 11.2038 0.0250274 0.0118927 -0.00372264
88 1 7.57256 13.0262 6.21046 0.0013563 -0.00233595 -0.00184878
89 2 7.31924 12.094 6.07303 -0.0186587 -0.0430103 0.0442732
90 2 7.17744 13.2248 7.14164 -0.0526235 0.00648743 0.0062312
91 1 6.42782 6.84121 6.62544 0.00238382 -0.000397661 -0.00318089
92 2 4.98701 7.35545 6.05446 -0.00220752 -0.00207189 0.01582
93 2 6.3658 6.28751 7.39965 0.019671 -0.00382343 0.00656059
94 1 3.59295 13.4934 7.73532 -0.00194418 0.0017952 0.0015683
95 2 3.63727 13.5305 8.72369 0.0349885 0.0102704 -0.000390406
96 2 3.76783 4.8751 6.18283 -0.0154708 0.00613035 -0.00574017
ITEM: TIMESTEP
3
ITEM: NUMBER OF ATOMS
96
ITEM: BOX BOUNDS pp pp pp
2.9236100000000000e+00 1.2773600000000000e+01
4.0306300000000004e+00 1.3880599999999999e+01
2.1372399999999998e+00 1.1987200000000000e+01
ITEM: ATOMS id type x y z vx vy vz
1 1 5.11854 13.8046 3.00393 0.00119046 -0.00453539 0.000725198
2 2 4.82729 12.871 3.20026 -0.00681072 -0.0266818 -0.0140972
3 2 11.221 13.4243 3.07225 0.00201304 0.00384151 0.00331798
4 1 3.00601 9.86718 11.7215 0.000476548 -0.00194837 0.00264743
5 2 11.9351 10.0895 11.5223 -0.0100297 -0.00218899 0.0166989
6 2 2.97187 9.17617 2.59401 -0.0240094 -0.0153737 -0.00684888
7 1 12.7511 7.45479 3.03788 0.000229014 -0.000253991 0.00260655
8 2 11.902 7.0525 3.03772 -0.000779302 0.0123127 -0.00447729
9 2 8.73794 8.72427 7.11781 0.0194795 -0.0373955 0.00461582
10 1 7.84394 9.11454 7.08861 0.00208874 0.000364265 0.00457462
11 2 7.06458 7.84295 7.03187 -0.03589 -0.0475887 -0.00716787
12 2 7.64212 9.49341 8.04572 -0.00951095 0.00823936 0.0144539
13 1 6.74689 9.54283 3.62536 0.00444048 -0.00141958 -0.0061979
14 2 6.06112 9.1023 4.23483 0.00591619 0.00806235 0.0039379
15 2 6.9337 8.89391 2.9284 -0.00658945 -0.000238283 0.0245124
16 1 9.76672 7.31777 10.6603 0.00260926 0.00557457 0.00196675
17 2 9.98755 7.01069 11.5134 0.000823236 0.0144015 -0.00478021
18 2 8.78764 7.26791 10.6161 0.0123005 0.0151776 0.000810454
19 1 4.51518 6.62018 10.8052 0.00579608 -0.000466646 0.00247288
20 2 3.92884 6.9505 11.5383 -0.00696012 0.00877209 -0.00398181
21 2 4.27354 8.43182 9.95123 0.034296 -0.0163063 -0.0534108
22 1 10.1523 10.2201 11.1093 0.00187725 -0.00175372 -0.00247428
23 2 9.82815 10.0908 2.23987 0.0162553 -0.00320637 -0.0130576
24 2 10.1102 9.29996 10.6819 0.00158971 0.00542564 0.00586026
25 1 4.31957 7.88397 5.45155 0.000283839 0.000470792 0.000926912
26 2 3.55423 8.0377 6.09038 -0.0305392 0.00112487 -0.0185718
27 2 3.73446 6.30395 5.52235 0.0248367 0.00472667 -0.0117171
28 1 10.1237 6.88548 3.62345 -0.000734006 0.00508314 0.0012436
29 2 9.43621 6.22613 3.96783 0.0189086 0.0152634 0.018566
30 2 9.82355 7.82431 3.84385 0.0147397 0.0045125 -0.00679472
31 1 11.5167 10.8789 5.29348 0.00264966 -0.00184239 0.0043316
32 2 11.0847 11.7405 5.28502 0.0241538 -0.00235025 0.0354594
33 2 12.2082 10.9223 4.6056 -0.00419662 -0.0136046 -0.014345
34 1 7.47284 4.55403 10.5745 -0.012243 0.00171912 0.00427547
35 2 7.64818 13.4803 10.3285 -0.00816657 -0.0173753 -0.0124708
36 2 6.727 4.57678 11.1954 0.00244489 -0.0137627 -0.0183414
37 1 8.54964 11.9561 9.96431 -0.000773673 0.00563526 0.00195026
38 2 9.02077 12.6125 9.36707 0.026907 -0.0204493 0.0073994
39 2 9.28501 11.4112 10.3179 -0.0138587 -0.00788774 -0.0145349
40 1 11.0427 13.791 4.90604 0.00314164 -0.00411124 -0.00142844
41 2 11.8468 4.28383 5.3334 -0.00970399 0.00583442 0.00543026
42 2 10.4888 4.68737 4.688 0.00906144 0.00159142 -0.00482154
43 1 3.47379 5.32425 5.39152 -0.0057219 -0.00211992 0.0084217
44 2 3.17372 7.40428 4.00618 -0.00923929 -0.00147167 0.0228795
45 2 4.87587 4.48369 3.76324 -0.00829056 0.00249588 0.0118373
46 1 9.91129 13.2981 8.02639 0.00504625 -2.41404e-06 0.00147333
47 2 9.48611 13.0122 7.23288 -0.00162992 0.00644053 -0.00195614
48 2 10.7682 12.8588 8.04253 -0.00122964 0.027817 -0.0127626
49 1 11.0274 5.90373 8.73404 -0.00559342 0.0022246 0.00277912
50 2 10.6021 5.08865 8.45183 -0.0192755 -0.000876473 -0.0186116
51 2 10.521 6.26913 9.52166 0.0228292 0.00199861 -0.00306279
52 1 9.44996 9.48516 3.85565 -0.00175937 0.00698398 0.00372783
53 2 10.1387 9.94236 4.43335 0.0169118 -0.0122288 0.0163883
54 2 8.59022 9.66144 4.23545 -0.00185563 0.0142733 -0.0113218
55 1 4.51721 11.1253 3.60031 -0.000411356 0.00202235 -0.0031086
56 2 5.41154 10.7286 3.47899 -0.0087379 0.00260955 -0.0105207
57 2 3.91553 10.7033 2.93317 -0.0183072 -0.0023292 0.00654539
58 1 6.75632 9.97643 9.42595 -0.000561922 -0.00132242 0.00205024
59 2 5.09154 10.5239 6.82417 -0.0136431 0.0291253 -0.0124705
60 2 7.03933 10.8886 9.69461 0.0139601 0.00328933 0.00735151
61 1 6.15978 4.78297 8.25601 0.00119939 -0.00256197 -0.000612819
62 2 6.5338 4.87937 9.16111 0.000907971 0.00315208 -0.00283303
63 2 5.25022 4.47545 8.15169 0.0167671 -0.0109225 -0.0167265
64 1 4.79283 11.3656 6.49627 -0.00418206 0.00207535 -0.00527047
65 2 4.50976 11.2488 5.54385 -0.0109201 -0.0107259 0.0015149
66 2 3.67467 12.5922 7.34099 0.00398792 0.00842169 -0.0147135
67 1 11.9421 10.6189 8.01875 -0.00473725 0.00141914 0.00357561
68 2 11.8601 10.7312 7.00811 -0.00446287 0.00827932 0.0017433
69 2 2.95079 10.1723 8.21876 -0.0157768 -0.00100692 3.43675e-05
70 1 8.22568 5.33594 4.84501 -0.00413974 -0.00577865 0.00362842
71 2 8.23853 4.38994 5.36323 0.00496804 -0.000892822 -0.00948941
72 2 7.6825 6.01864 5.32214 -0.0133145 0.0114901 0.00487986
73 1 10.4724 8.38512 7.29946 0.00398652 0.000304106 -0.00455019
74 2 10.6727 7.77609 8.03233 0.0198987 -0.00810363 -0.00964796
75 2 10.9799 9.16382 7.51341 -0.0141739 0.00622256 0.0264687
76 1 3.81486 4.05365 10.3919 -0.00434363 0.000864629 -0.00839171
77 2 3.02404 13.4022 10.5781 -0.00730976 -0.0125783 0.00238547
78 2 3.95372 5.83373 10.5301 -0.00595484 0.00767554 0.0072855
79 1 4.09997 9.24332 9.4211 -0.000337434 -0.000759777 -0.0108228
80 2 3.57936 9.79788 9.98113 -0.0196238 -0.0144133 0.027153
81 2 5.76999 9.9461 9.17427 0.00483856 -0.0190166 -0.0398025
82 1 6.94913 7.8615 11.0753 -0.00162811 -0.00372846 0.000562057
83 2 6.12198 7.36099 10.9574 -0.0152937 0.00109094 0.00228551
84 2 7.11082 8.60048 10.4133 0.00625388 -0.00847375 -0.0113183
85 1 11.2709 13.5419 11.9421 0.010682 0.00460575 -0.00468657
86 2 10.926 4.61385 11.7347 0.0205264 -0.0122567 -0.00531671
87 2 4.42893 13.8702 11.202 0.0216955 0.0108692 -0.00397843
88 1 7.57318 13.0249 6.2097 0.00108507 -0.00281223 -0.00113755
89 2 7.30986 12.0732 6.09517 -0.018323 -0.0389253 0.0440943
90 2 7.15179 13.2282 7.14257 -0.0493697 0.00719126 -0.00327514
91 1 6.42925 6.84138 6.62392 0.00332767 0.00106173 -0.00285815
92 2 4.98713 7.35506 6.0619 0.00228026 0.000848746 0.0138532
93 2 6.3755 6.28521 7.40331 0.0189542 -0.00558455 0.00789768
94 1 3.59198 13.4943 7.73604 -0.00195851 0.00199675 0.00127107
95 2 3.65475 13.5347 8.72266 0.034918 0.00649654 -0.00358531
96 2 3.76009 4.87776 6.18047 -0.015273 0.00421978 -0.0031185
