ITEM: TIMESTEP
0
ITEM: NUMBER OF ATOMS
96
ITEM: BOX BOUNDS pp pp pp
2.9236100000000000e+00 1.2773600000000000e+01
4.0306300000000004e+00 1.3880599999999999e+01
2.1372399999999998e+00 1.1987200000000000e+01
ITEM: ATOMS id type x y z vx vy vz
1 1 5.63761 4.33241 2.43094 0.00693077 -0.00345083 0.00157133
2 2 5.3685 13.2771 2.50339 -0.00295941 0.0128853 0.0702328
3 2 11.0112 13.5564 11.9522 0.0103936 -0.00515433 -0.00173803
4 1 12.5088 12.9718 11.6453 0.00365951 0.00172827 -0.00180711
5 2 12.625 12.1552 11.1914 0.0331264 -0.0281944 -0.00189444
6 2 3.21124 12.8491 2.5851 -0.00704652 0.0191639 0.0189536
7 1 11.6365 7.16555 3.78418 -0.000130997 0.000533643 0.0055347
8 2 10.663 6.8689 3.85584 -0.000399044 -0.00836549 0.0110431
9 2 9.62655 8.4524 7.72731 0.00127129 0.00591004 0.0151606
10 1 8.72319 8.68301 7.90967 -0.00400293 -0.00423897 0.000506387
11 2 8.28855 7.83505 8.02709 0.0220819 -0.0118565 0.00783703
12 2 7.49015 9.74404 9.03405 0.00736526 -0.00615019 -0.00267017
13 1 6.25068 9.10897 11.9849 0.00335389 0.0112507 -0.00341296
14 2 6.56674 9.78866 11.3421 0.0213261 0.0112774 -0.0114937
15 2 5.37161 8.75297 11.6877 -0.0139716 0.00998762 -0.00807225
16 1 8.57448 7.46994 11.9564 0.00269329 0.000613389 -0.000566567
17 2 8.55406 7.03525 3.78091 -1.03939e-05 -0.00120746 1.09306e-05
18 2 7.79554 8.05106 11.9749 -0.0118326 -0.0108106 0.0171796
19 1 4.08882 7.51415 11.5109 -0.00489577 -0.00292549 -0.00167569
20 2 3.76931 7.28749 2.56153 -0.016054 0.00189462 -0.00827788
21 2 12.1433 10.0479 11.1954 0.00011501 -0.00916363 0.000787079
22 1 10.3849 9.63054 2.13724 0.000141475 0.001798 -0.000822813
23 2 10.2506 9.81392 3.08996 0.0182122 0.00535491 0.0160043
24 2 9.31871 8.02231 11.7765 0.0126302 -0.0100525 -0.0130531
25 1 4.15956 8.5315 6.75393 -0.000642069 -0.000766168 0.00337921
26 2 3.75756 8.73952 5.90523 0.0176388 -0.01056 -0.0405314
27 2 12.4531 5.24128 4.03771 0.0066213 0.0159205 -0.0183447
28 1 8.8915 6.84599 4.71112 0.00228599 -0.000357779 -0.00245204
29 2 9.15051 5.86555 4.73062 -0.00324457 0.00381172 -0.0169579
30 2 7.49836 6.09155 5.3447 0.00999602 0.0184922 0.0117576
31 1 3.3526 9.70135 4.48835 -0.00468417 -0.00586723 -0.00568055
32 2 12.651 10.47 4.6825 -0.00323989 -0.00835583 0.00970602
33 2 4.19249 10.0405 4.04333 0.0142683 0.0268456 -0.00496811
34 1 8.2761 5.46282 8.11061 0.000689472 -0.00366443 0.000396883
35 2 8.49969 4.51121 7.96493 0.00914546 0.0111273 -0.0278152
36 2 7.7059 5.55779 8.9363 0.0243601 0.0038541 0.0297535
37 1 8.99264 11.5824 10.5075 0.00274756 -0.00193305 0.000984282
38 2 9.40967 12.1584 9.85583 0.00155824 -0.00938676 -0.0237127
39 2 9.97588 10.3512 11.4434 0.0104972 -0.00684893 -0.0290022
40 1 12.0952 12.0856 5.29547 0.00313647 -0.00160569 -0.00186149
41 2 3.0474 13.6714 4.55288 -0.00923784 0.0174447 0.000189498
42 2 11.1936 12.3293 5.12885 0.0323336 0.00637445 -0.000780299
43 1 3.38048 4.68048 4.08746 -0.00478821 0.00386707 0.000103168
44 2 11.6488 8.1542 3.85136 -0.00342341 0.0118816 0.000412208
45 2 4.86942 4.73111 2.85343 0.00156913 0.0361113 -0.000703635
46 1 9.71618 12.5625 8.01548 -0.00325441 -0.000151197 -0.00292667
47 2 9.17896 12.2138 7.26348 0.0129744 -0.02995 0.00387783
48 2 10.5689 12.0254 8.03067 0.00928338 -0.00363957 -0.0103556
49 1 10.372 6.14925 9.77047 -0.00281219 -0.000251506 0.00253611
50 2 9.74332 5.76704 9.1087 -0.0283156 -0.00313801 -0.0286065
51 2 9.79166 6.34693 10.5527 -0.0234068 0.00907964 -0.0207531
52 1 9.72584 9.70152 4.76505 -0.00494558 0.000873887 2.40721e-05
53 2 9.42588 8.81992 4.96102 0.0142227 -0.0105082 0.00951299
54 2 9.01389 10.2396 5.16725 -0.0285731 0.0120451 -0.0060989
55 1 4.7298 11.3437 2.97648 0.00398778 -0.00550771 -0.000472487
56 2 5.50246 10.6535 3.00978 -0.0222426 -0.000320567 0.0374595
57 2 4.12391 10.8997 2.2638 0.0178283 0.01607 0.00783803
58 1 6.83778 10.3856 9.41249 -0.00446273 -0.00729964 -0.00117123
59 2 4.92901 11.9056 7.28804 0.00151572 -0.0203856 -0.000181598
60 2 8.15336 11.2617 10.1127 -0.0185371 -0.0213488 0.0229913
61 1 7.06952 5.29791 5.74333 0.00627087 0.00353701 -0.00211657
62 2 7.33451 5.36557 6.74109 -0.0205065 0.00514541 0.00384101
63 2 5.68649 5.80598 5.90644 -0.0321855 -0.0109028 -0.0118173
64 1 5.55369 11.1638 7.16061 0.00594303 -0.00086985 -0.00120205
65 2 4.98454 10.4187 6.96823 -0.00487893 -0.00934948 0.00840792
66 2 12.1141 11.6584 6.13596 0.0283323 0.00945095 -0.0219326
67 1 12.3659 11.7923 8.2124 -0.00388082 0.00206472 0.0020267
68 2 2.92478 12.6977 8.08907 0.025985 0.0149775 -0.0153821
69 2 12.6466 11.5542 9.14738 -0.0235256 -0.0232831 0.00899775
70 1 9.8104 4.31565 4.82862 0.00028899 0.00372143 0.00208707
71 2 9.97208 13.7684 3.9221 -0.0113835 0.0104509 -0.0313218
72 2 9.01366 13.7845 5.11309 0.000459747 0.0169826 0.00611803
73 1 11.5148 8.34429 8.16235 -0.00330513 -0.00693955 0.00559075
74 2 11.3091 7.64771 8.73581 0.000179704 0.0141609 0.00602895
75 2 12.3369 8.04456 7.65365 0.0113944 -0.00314923 3.11279e-05
76 1 3.10702 5.41019 9.86761 0.00468531 -0.0101148 0.00437644
77 2 12.0123 5.65557 9.82108 0.0123358 -0.00964917 0.00679434
78 2 3.60092 6.82438 10.9076 -0.0072295 -0.00197986 0.0130433
79 1 3.11676 10.2612 10.6779 -0.00473367 -0.00124816 -0.00109699
80 2 3.41738 9.3891 10.3314 0.0396699 0.00409707 -0.0174603
81 2 6.3389 10.6635 8.61077 -0.0179621 -0.00399036 0.00480775
82 1 6.09242 5.8292 9.77823 0.00262395 0.0056519 0.00232728
83 2 5.49539 6.53635 9.96075 -0.00260385 -0.00341538 -0.0272122
84 2 6.16734 5.26266 10.6247 -0.011109 0.00443027 -0.0138932
85 1 10.0035 13.6837 2.1852 -0.000937617 0.0104265 0.00187276
86 2 9.61237 12.9495 11.5848 0.0257238 -0.0149182 -0.00214594
87 2 3.10999 4.53135 10.2648 -0.00250101 0.0123933 0.00811219
88 1 7.96856 11.7602 5.86269 -0.00147554 -0.00178331 -0.00401295
89 2 7.16078 11.3377 6.13779 0.0208441 0.0128024 0.00374153
90 2 7.68334 12.677 5.7547 0.010107 0.0127338 -0.0116781
91 1 4.55344 5.95223 6.10818 -0.00651054 0.00386942 0.00440232
92 2 4.50021 7.61325 6.65238 -0.0182512 -0.0325357 -0.000708857
93 2 3.88149 4.73615 7.01572 -0.00362274 -0.0356544 -0.0265459
94 1 4.0498 4.17082 7.8316 -0.00485339 0.00616758 0.00141929
95 2 4.24496 4.81861 8.51249 0.0189332 -0.00132376 -0.0176094
96 2 4.14957 5.60791 5.29482 0.0166054 0.0379739 -0.0116785
ITEM: TIMESTEP
1
ITEM: NUMBER OF ATOMS
96
ITEM: BOX BOUNDS pp pp pp
2.9236100000000000e+00 1.2773600000000000e+01
4.0306300000000004e+00 1.3880599999999999e+01
2.1372399999999998e+00 1.1987200000000000e+01
ITEM: ATOMS id type x y z vx vy vz
1 1 5.64107 4.3307 2.43171 0.00687164 -0.00334315 0.00152676
2 2 5.36752 13.2822 2.53829 -0.00099479 0.00759492 0.0693932
3 2 11.0156 13.5541 11.9514 0.00714192 -0.00395398 -0.00127972
4 1 12.5107 12.9727 11.6444 0.00397391 0.00182692 -0.00186232
5 2 12.6415 12.1399 11.1898 0.032668 -0.0317803 -0.00384357
6 2 3.20771 12.8589 2.59485 -0.00732889 0.0201265 0.0195885
7 1 11.6363 7.16581 3.78695 -0.000499736 0.000530154 0.00554767
8 2 10.6651 6.86618 3.86143 0.00858878 -0.00247231 0.0113044
9 2 9.62804 8.45541 7.73492 0.00472112 0.00624051 0.015247
10 1 8.7211 8.6809 7.90994 -0.00433479 -0.00420212 0.000563723
11 2 8.29978 7.8289 8.03093 0.0226164 -0.0128469 0.00757063
12 2 7.49383 9.74104 9.03301 0.00707999 -0.00566018 -0.00158662
13 1 6.25238 9.11465 11.9832 0.00342855 0.0114741 -0.0033226
14 2 6.57654 9.79341 11.3362 0.0176184 0.00740693 -0.0118468
15 2 5.36527 8.75817 11.6834 -0.0107004 0.0110891 -0.00888408
16 1 8.57578 7.47014 11.9561 0.00251492 0.000201276 -0.000511768
17 2 8.55436 7.03455 3.78077 0.00114778 -0.00140735 -0.000690353
18 2 7.78905 8.04602 11.9834 -0.0136687 -0.00932371 0.0167316
19 1 4.08628 7.51257 11.51 -0.00526512 -0.00336453 -0.00188671
20 2 3.76128 7.28872 2.55649 -0.0160639 0.0030867 -0.0115427
21 2 12.1441 10.0431 11.1951 0.00297883 -0.0104166 -0.00200898
22 1 10.385 9.63143 11.9867 0.000283247 0.0017746 -0.00110378
23 2 10.2593 9.81693 3.09809 0.0165334 0.00676329 0.015813
24 2 9.32623 8.01857 11.77 0.0169117 -0.00489439 -0.0130112
25 1 4.15926 8.5311 6.7557 -0.000566054 -0.000879521 0.00360697
26 2 3.76571 8.73509 5.88376 0.0154835 -0.00719197 -0.0441484
27 2 12.4561 5.24953 4.02846 0.00536577 0.0170429 -0.0185885
28 1 8.89263 6.84583 4.70987 0.00225017 -0.00027795 -0.00253732
29 2 9.14934 5.86746 4.72199 -0.00129116 0.00345427 -0.0174071
30 2 7.50373 6.10175 5.34988 0.0112491 0.0218753 0.00918137
31 1 3.35031 9.69835 4.48547 -0.00444754 -0.00609019 -0.00585293
32 2 12.6492 10.4665 4.6874 -0.00377982 -0.00602564 0.00989145
33 2 4.19861 10.0542 4.04119 0.00930892 0.0275904 -0.00307956
34 1 8.27645 5.461 8.11082 0.000721222 -0.0035904 0.000482727
35 2 8.50416 4.5171 7.95193 0.0087201 0.0120876 -0.0240482
36 2 7.71794 5.559 8.95026 0.0238899 0.000783642 0.0257387
37 1 8.99406 11.5814 10.5081 0.00290754 -0.00192766 0.00127014
38 2 9.41055 12.1539 9.84281 0.00154985 -0.00918119 -0.0280424
39 2 9.98104 10.3475 11.4295 0.0101337 -0.00799387 -0.0260079
40 1 12.0968 12.0848 5.29446 0.00346481 -0.00151175 -0.00224647
41 2 3.04331 13.6819 4.5521 -0.00728227 0.0244398 -0.00314484
42 2 11.2091 12.3326 5.12888 0.0285306 0.00688653 0.000826954
43 1 3.37804 4.6823 4.08758 -0.00494067 0.00341873 0.000369314
44 2 11.6466 8.15854 3.85158 -0.0052143 0.0051828 0.000477942
45 2 4.87026 4.75013 2.85319 0.00254274 0.0394685 -0.000730667
46 1 9.71457 12.5624 8.01401 -0.00315464 -0.000325313 -0.00296526
47 2 9.18587 12.1988 7.26588 0.0143485 -0.0298154 0.00563525
48 2 10.5729 12.0243 8.02535 0.0065896 -0.00037709 -0.0107056
49 1 10.3705 6.14916 9.77177 -0.00327572 -0.000146633 0.00260364
50 2 9.72959 5.76561 9.09452 -0.0256576 -0.00208215 -0.0273126
51 2 9.78066 6.35132 10.5418 -0.0205231 0.00852453 -0.0228613
52 1 9.72334 9.702 4.7651 -0.00508692 0.00104058 0.000173141
53 2 9.43311 8.81382 4.96566 0.0146913 -0.0133952 0.00902931
54 2 9.00006 10.2459 5.16395 -0.0261989 0.0127378 -0.00738579
55 1 4.73184 11.3407 2.97615 0.00416207 -0.00630454 -0.000804253
56 2 5.48988 10.6551 3.02819 -0.0271095 0.00623533 0.0358726
57 2 4.13394 10.909 2.26901 0.0217857 0.0207108 0.0122949
58 1 6.83559 10.3819 9.41192 -0.00428609 -0.00759325 -0.00111826
59 2 4.92991 11.895 7.28805 0.00188516 -0.0214254 0.000325078
60 2 8.14346 11.2509 10.1238 -0.02038 -0.0214504 0.0216244
61 1 7.07265 5.2996 5.74233 0.00624419 0.00327184 -0.00188759
62 2 7.32416 5.36801 6.74286 -0.0209915 0.00455765 0.00284769
63 2 5.6678 5.80051 5.90112 -0.0414969 -0.0109501 -0.00918588
64 1 5.55664 11.1634 7.15999 0.00584209 -0.000716809 -0.00127801
65 2 4.98166 10.4136 6.97243 -0.00627331 -0.0108299 0.00843981
66 2 12.1278 11.6631 6.12616 0.0264317 0.00910967 -0.0163859
67 1 12.364 11.7934 8.2135 -0.00375149 0.00221652 0.00237608
68 2 2.93755 12.7049 8.08115 0.0247695 0.0127128 -0.0157629
69 2 12.6342 11.5422 9.15059 -0.0258573 -0.0243433 0.00354714
70 1 9.81064 4.31752 4.82964 0.000664977 0.00375781 0.00195536
71 2 9.96622 13.774 3.90609 -0.0122559 0.012259 -0.0320065
72 2 9.01248 13.7923 5.11684 -0.00508882 0.0142601 0.00878526
73 1 11.5132 8.34084 8.16503 -0.00287439 -0.00681522 0.00507616
74 2 11.3089 7.65349 8.73982 -0.00104052 0.0084936 0.0103612
75 2 12.3415 8.04386 7.6545 0.00682177 0.000383626 0.00352222
76 1 3.10943 5.40516 9.86981 0.00497392 -0.00997473 0.00440089
77 2 12.0178 5.65087 9.82434 0.00929522 -0.00895847 0.0061633
78 2 3.59854 6.82474 10.9155 -0.00244611 0.00320366 0.0182241
79 1 3.11437 10.2605 10.6774 -0.00479534 -0.00135767 -0.00104033
80 2 3.43669 9.39187 10.3234 0.0371591 0.0073024 -0.0143157
81 2 6.32937 10.6622 8.61299 -0.0199733 -0.00142261 0.00407873
82 1 6.09381 5.83192 9.77945 0.00297392 0.00523218 0.00248841
83 2 5.49368 6.5346 9.94801 -0.00449111 -0.00333003 -0.0236026
84 2 6.161 5.26639 10.6164 -0.0142345 0.0101906 -0.0186611
85 1 10.0031 13.689 2.18619 -0.000810495 0.0106401 0.00204782
86 2 9.62455 12.9411 11.5834 0.0228653 -0.0180909 -0.00331559
87 2 3.10878 4.53723 10.2693 -0.00218718 0.0103763 0.0103721
88 1 7.96787 11.7594 5.86066 -0.00123669 -0.00150621 -0.00413277
89 2 7.17066 11.3437 6.14005 0.0178787 0.010677 0.00555744
90 2 7.68843 12.6834 5.74879 0.0103055 0.0124672 -0.0118774
91 1 4.55033 5.9542 6.11038 -0.005906 0.00400129 0.00440499
92 2 4.49119 7.59651 6.65218 -0.0180831 -0.0334231 0.000179757
93 2 3.87984 4.71818 7.00198 -0.00293033 -0.0360507 -0.0280312
94 1 4.04738 4.17385 7.83227 -0.00483461 0.0059063 0.00125045
95 2 4.2545 4.81822 8.50487 0.019203 0.000299905 -0.0128576
96 2 4.15745 5.62668 5.28821 0.014237 0.0370443 -0.0149988
ITEM: TIMESTEP
2
ITEM: NUMBER OF ATOMS
96
ITEM: BOX BOUNDS pp pp pp
2.9236100000000000e+00 1.2773600000000000e+01
4.0306300000000004e+00 1.3880599999999999e+01
2.1372399999999998e+00 1.1987200000000000e+01
ITEM: ATOMS id type x y z vx vy vz
1 1 5.64448 4.32907 2.43247 0.00670883 -0.00318164 0.00154627
2 2 5.36751 13.2847 2.57278 0.00093702 0.00262653 0.0685883
3 2 11.0183 13.5524 11.9509 0.00375125 -0.00226902 -0.000538104
4 1 12.5128 12.9736 11.6434 0.00431946 0.00176861 -0.00194757
5 2 12.6577 12.1234 11.1876 0.0319171 -0.0328854 -0.00430317
6 2 3.20391 12.8692 2.60469 -0.00815441 0.0211346 0.0193033
7 1 11.636 7.16608 3.78973 -0.000836623 0.000551082 0.00555792
8 2 10.6716 6.86643 3.86714 0.0171037 0.00330261 0.011544
9 2 9.63127 8.45864 7.74256 0.00804656 0.00685443 0.0153052
10 1 8.71886 8.67881 7.91023 -0.00463723 -0.00416963 0.000619437
11 2 8.31117 7.8222 8.03466 0.0227363 -0.0140143 0.00736663
12 2 7.49723 9.73838 9.03246 0.00625006 -0.00478913 -0.000707349
13 1 6.25411 9.12044 11.9816 0.00345585 0.011672 -0.00328551
14 2 6.58436 9.79607 11.3303 0.0134843 0.00304842 -0.0116954
15 2 5.36091 8.76406 11.6788 -0.00617314 0.0126751 -0.00932288
16 1 8.57699 7.47014 11.9559 0.00234601 -0.000181286 -0.000462978
17 2 8.55521 7.03384 3.78022 0.00215881 -0.00126977 -0.00167736
18 2 7.78187 8.04174 2.14167 -0.0145328 -0.00782692 0.0160856
19 1 4.08355 7.51079 11.509 -0.00559345 -0.00374996 -0.00207432
20 2 3.75325 7.29058 2.54999 -0.0160919 0.00437841 -0.0139958
21 2 12.1463 10.0375 11.1934 0.00567441 -0.0121134 -0.0047532
22 1 10.3852 9.63231 11.9861 0.000425955 0.00174054 -0.00133535
23 2 10.2671 9.82068 3.10577 0.0146741 0.00824833 0.0142787
24 2 9.33562 8.01742 11.7635 0.0199119 0.000106884 -0.0126802
25 1 4.15899 8.53062 6.75754 -0.000535603 -0.0010847 0.00363374
26 2 3.77304 8.73233 5.86108 0.0143754 -0.00396878 -0.0452739
27 2 12.4585 5.25832 4.01912 0.00402695 0.0180461 -0.018703
28 1 8.89375 6.84571 4.70858 0.00220856 -0.000179277 -0.00261983
29 2 9.14922 5.869 4.71321 0.000956169 0.00241832 -0.0175363
30 2 7.50961 6.11343 5.35388 0.0119529 0.0242526 0.00714134
31 1 3.34815 9.69526 4.4825 -0.00413416 -0.00625447 -0.00604634
32 2 12.6472 10.464 4.69239 -0.00424993 -0.00415133 0.0100822
33 2 4.2018 10.0681 4.04025 0.00280028 0.0273382 -0.000272023
34 1 8.27682 5.45923 8.11109 0.000754259 -0.00344495 0.000607176
35 2 8.50841 4.5233 7.94088 0.00829897 0.0123101 -0.0200577
36 2 7.72979 5.55857 8.96204 0.0235732 -0.00264695 0.0211415
37 1 8.99555 11.5805 10.5088 0.00303185 -0.00191331 0.00148079
38 2 9.41122 12.1492 9.82779 0.000657226 -0.00985061 -0.0316462
39 2 9.98601 10.3432 11.4174 0.00972085 -0.00911286 -0.0223172
40 1 12.0987 12.0841 5.29322 0.00392924 -0.00140439 -0.00271519
41 2 3.04012 13.6958 4.54974 -0.00578069 0.0305718 -0.00598808
42 2 11.2221 12.3362 5.12968 0.0227062 0.00786003 0.00231868
43 1 3.37554 4.6839 4.08783 -0.00504222 0.0030387 0.000590831
44 2 11.6436 8.15938 3.85184 -0.0069658 -0.00179051 0.000553658
45 2 4.87196 4.77058 2.8527 0.00503113 0.0416806 -0.00170457
46 1 9.71303 12.5622 8.01251 -0.00300235 -0.000541782 -0.00300117
47 2 9.19331 12.184 7.26912 0.0150516 -0.0294213 0.00712937
48 2 10.5755 12.025 8.01996 0.00384313 0.00332515 -0.0106467
49 1 10.3687 6.1491 9.77307 -0.00384449 -0.000108906 0.00253905
50 2 9.71766 5.76496 9.08139 -0.0212696 -0.000130174 -0.0245283
51 2 9.77114 6.35545 10.5298 -0.0175891 0.00809191 -0.0244904
52 1 9.72075 9.70256 4.76522 -0.00528709 0.00121533 0.000344136
53 2 9.44057 8.80652 4.97005 0.0151409 -0.0152158 0.00847574
54 2 8.98769 10.2523 5.15986 -0.0228178 0.0122891 -0.009186
55 1 4.73396 11.3374 2.97568 0.00430942 -0.00691534 -0.00100555
56 2 5.47535 10.6597 3.04565 -0.0298637 0.0113596 0.033763
57 2 4.1457 10.9204 2.27609 0.0245204 0.0241718 0.0151583
58 1 6.83349 10.378 9.41137 -0.00409107 -0.00788499 -0.00106069
59 2 4.9309 11.8842 7.28837 0.0018472 -0.0215704 0.00101676
60 2 8.13298 11.2402 10.1343 -0.0208145 -0.0208574 0.0206013
61 1 7.07576 5.30118 5.74144 0.00618015 0.0030963 -0.00164026
62 2 7.31352 5.37013 6.74394 -0.0216545 0.00387987 0.00108839
63 2 5.64499 5.79503 5.89725 -0.0484409 -0.0109812 -0.00601832
64 1 5.55953 11.1631 7.15933 0.00571548 -0.000659892 -0.00136503
65 2 4.97827 10.4079 6.97667 -0.00690134 -0.0117902 0.00859252
66 2 12.1405 11.6675 6.11957 0.0243188 0.00809535 -0.00934143
67 1 12.3621 11.7945 8.21478 -0.00359914 0.00242839 0.00269164
68 2 2.94955 12.7104 8.07331 0.0229899 0.00879116 -0.0151361
69 2 12.6207 11.5299 9.15093 -0.0278873 -0.0245561 -0.00231499
70 1 9.81106 4.31941 4.83058 0.00103544 0.00375542 0.00172998
71 2 9.95982 13.7807 3.89009 -0.0135113 0.0145432 -0.0312796
72 2 9.00857 13.7988 5.12188 -0.0102082 0.0116951 0.0111584
73 1 11.5119 8.33747 8.16743 -0.00241693 -0.00664562 0.00451738
74 2 11.3081 7.6562 8.74617 -0.00227773 0.00213658 0.0151322
75 2 12.3437 8.04494 7.65717 0.00197223 0.0038908 0.00723498
76 1 3.11199 5.40022 9.87201 0.00526032 -0.009774 0.0043902
77 2 12.0216 5.64661 9.82724 0.0058287 -0.00792587 0.00538327
78 2 3.59847 6.82758 10.9258 0.00189352 0.00774251 0.0223526
79 1 3.11196 10.2598 10.6769 -0.00481305 -0.00146268 -0.0010282
80 2 3.45454 9.3964 10.3171 0.0339097 0.0109651 -0.0106742
81 2 6.31893 10.6621 8.61485 -0.0215202 0.00083445 0.00345396
82 1 6.09539 5.83443 9.78072 0.00335362 0.00483349 0.00254752
83 2 5.4909 6.53302 9.93715 -0.00685726 -0.00282662 -0.0197676
84 2 6.15311 5.27285 10.606 -0.0172773 0.0151871 -0.0220894
85 1 10.0027 13.6943 2.18725 -0.000646982 0.0107506 0.0021759
86 2 9.63524 12.9314 11.5815 0.0198052 -0.0203001 -0.00385573
87 2 3.1078 4.54173 10.2752 -0.00161552 0.00698385 0.013157
88 1 7.96732 11.7587 5.85856 -0.000907645 -0.00115493 -0.00429894
89 2 7.17866 11.3484 6.14335 0.0134897 0.00798547 0.0078396
90 2 7.69365 12.6895 5.74282 0.0105665 0.0114498 -0.0119312
91 1 4.54753 5.95623 6.11258 -0.00528865 0.00410349 0.00438033
92 2 4.48213 7.57983 6.65256 -0.0184598 -0.032299 0.0015321
93 2 3.87856 4.7001 6.98769 -0.00212901 -0.0361017 -0.0286349
94 1 4.04497 4.17673 7.83285 -0.00483295 0.00555297 0.00103816
95 2 4.26416 4.81891 8.49963 0.0193825 0.00281188 -0.00825979
96 2 4.16381 5.64495 5.27982 0.0105161 0.0360676 -0.018678
ITEM: TIMESTEP
3
ITEM: NUMBER OF ATOMS
96
ITEM: BOX BOUNDS pp pp pp
2.9236100000000000e+00 1.2773600000000000e+01
4.0306300000000004e+00 1.3880599999999999e+01
2.1372399999999998e+00 1.1987200000000000e+01
ITEM: ATOMS id type x y z vx vy vz
1 1 5.64778 4.32752 2.43325 0.00644279 -0.00299843 0.00163076
2 2 5.36846 13.2849 2.60688 0.00291274 -0.00137825 0.0677537
3 2 11.0194 13.5518 11.9509 0.000458828 -0.000151224 0.000439872
4 1 12.515 12.9745 11.6424 0.00469225 0.00155875 -0.00206094
5 2 12.6734 12.107 11.1855 0.0308305 -0.0315299 -0.00331186
6 2 3.19956 12.8801 2.61415 -0.00946577 0.0221395 0.0181019
7 1 11.6355 7.16636 3.79251 -0.00110027 0.000580608 0.0055601
8 2 10.6822 6.86949 3.87298 0.0244161 0.00862763 0.0118013
9 2 9.63609 8.46226 7.75022 0.01093 0.00781173 0.0153948
10 1 8.71647 8.67673 7.91056 -0.00489353 -0.00415221 0.000671615
11 2 8.32252 7.81489 8.0383 0.0225169 -0.015247 0.00720395
12 2 7.50008 9.73625 9.0323 0.00492834 -0.00360913 -0.000104574
13 1 6.25584 9.12633 11.9799 0.00344885 0.0118356 -0.00328768
14 2 6.59003 9.79646 11.3245 0.00913061 -0.00150798 -0.0112353
15 2 5.35909 8.77085 11.6741 -0.000718896 0.0145907 -0.00943471
16 1 8.57813 7.46996 11.9557 0.00220034 -0.000507251 -0.000424744
17 2 8.55652 7.03328 3.7791 0.00303701 -0.000798722 -0.00294303
18 2 7.77452 8.03819 2.14953 -0.0142957 -0.00645006 0.0152253
19 1 4.08068 7.50882 11.5079 -0.00585927 -0.0040554 -0.0022289
20 2 3.74519 7.2931 2.54249 -0.0162105 0.00573493 -0.0154056
21 2 12.1498 10.0309 11.1903 0.00798335 -0.0142151 -0.00727465
22 1 10.3854 9.63317 11.9854 0.000569188 0.00168962 -0.00151084
23 2 10.274 9.82518 3.11237 0.0126584 0.00973101 0.0115432
24 2 9.34614 8.01868 11.7573 0.0212993 0.00466601 -0.0119449
25 1 4.15873 8.53002 6.75933 -0.000552265 -0.00136885 0.00345632
26 2 3.78009 8.73113 5.83849 0.0143086 -0.000970455 -0.0437732
27 2 12.4601 5.26758 4.00976 0.00270033 0.0188698 -0.018693
28 1 8.89484 6.84565 4.70725 0.00215672 -7.06864e-05 -0.0026981
29 2 9.1503 5.86987 4.70445 0.00347947 0.000804232 -0.0173563
30 2 7.51569 6.126 5.35702 0.0120503 0.0254034 0.00573512
31 1 3.34617 9.6921 4.47942 -0.00377406 -0.00636127 -0.00624185
32 2 12.645 10.4623 4.69748 -0.00467961 -0.00280278 0.0103067
33 2 4.20141 10.0816 4.04091 -0.00472553 0.026117 0.00321232
34 1 8.27721 5.45755 8.11143 0.000792164 -0.00323271 0.000760703
35 2 8.51246 4.52941 7.93187 0.00793979 0.0117628 -0.0159506
36 2 7.74151 5.55635 8.9714 0.0233015 -0.0063302 0.0161794
37 1 8.99709 11.5795 10.5096 0.00311617 -0.00188565 0.00160373
38 2 9.41121 12.144 9.81117 -0.0011194 -0.01144 -0.0343478
39 2 9.99076 10.3384 11.4072 0.00920471 -0.0100754 -0.018153
40 1 12.1008 12.0834 5.29174 0.00449384 -0.0013002 -0.00323231
41 2 3.03753 13.7125 4.54611 -0.00492619 0.0353488 -0.00806763
42 2 11.2318 12.3404 5.1312 0.0153985 0.00920706 0.00374769
43 1 3.373 4.68533 4.08817 -0.0050866 0.00276108 0.000750874
44 2 11.6397 8.15675 3.85214 -0.00859934 -0.00844866 0.000663186
45 2 4.87529 4.79181 2.85149 0.00892489 0.0425784 -0.00354229
46 1 9.71157 12.5618 8.01101 -0.00281201 -0.000784969 -0.0030278
47 2 9.20092 12.1694 7.27301 0.0149884 -0.0288348 0.00824924
48 2 10.5767 12.0277 8.01471 0.0013045 0.00727893 -0.0101774
49 1 10.3666 6.14905 9.77431 -0.00448334 -0.000126176 0.00234989
50 2 9.70832 5.76548 9.06999 -0.0154996 0.00247575 -0.0205915
51 2 9.76307 6.35941 10.5173 -0.0148064 0.00784804 -0.0254023
52 1 9.71805 9.70321 4.76544 -0.00553012 0.00138168 0.00052762
53 2 9.44825 8.79861 4.97414 0.0155395 -0.015836 0.0078402
54 2 8.97724 10.2582 5.15477 -0.0186578 0.0108268 -0.0113353
55 1 4.73615 11.3338 2.97514 0.00442886 -0.0072938 -0.00106485
56 2 5.46001 10.6665 3.06196 -0.0302129 0.014675 0.0313337
57 2 4.15847 10.9332 2.28417 0.0257487 0.0262561 0.0160791
58 1 6.8315 10.374 9.41086 -0.00388703 -0.00816489 -0.00100138
59 2 4.93175 11.8735 7.28907 0.00137019 -0.0207951 0.00189643
60 2 8.12265 11.2301 10.1444 -0.0197909 -0.019567 0.0199404
61 1 7.07883 5.3027 5.74069 0.00609331 0.00301964 -0.00138598
62 2 7.3025 5.37189 6.74394 -0.0224541 0.00313844 -0.00140912
63 2 5.61936 5.78953 5.8951 -0.05272 -0.0110055 -0.00233619
64 1 5.56236 11.1628 7.15863 0.00556463 -0.000703518 -0.00146242
65 2 4.97476 10.4018 6.98102 -0.00672696 -0.0121941 0.00885855
66 2 12.1521 11.6712 6.11682 0.0220509 0.00672685 -0.00141542
67 1 12.3604 11.7958 8.2162 -0.00343679 0.00268348 0.00295017
68 2 2.96053 12.7136 8.06602 0.0207638 0.00359915 -0.0135757
69 2 12.6063 11.5176 9.14828 -0.029483 -0.0240568 -0.00816009
70 1 9.81167 4.32128 4.83137 0.00136631 0.00370816 0.00143148
71 2 9.95271 13.7886 3.87481 -0.0151128 0.0172006 -0.0292407
72 2 9.00227 13.804 5.128 -0.0144039 0.00950533 0.0130236
73 1 11.5108 8.3342 8.16954 -0.00197078 -0.00645693 0.00395974
74 2 11.3066 7.65563 8.75496 -0.00334677 -0.00433429 0.0198543
75 2 12.3435 8.04775 7.66173 -0.0027787 0.00720318 0.0109403
76 1 3.11469 5.39538 9.8742 0.00552689 -0.00953306 0.00434845
77 2 12.0236 5.64294 9.82972 0.0023169 -0.00669143 0.00448979
78 2 3.60043 6.83248 10.9379 0.00548307 0.0112406 0.0250711
79 1 3.10956 10.2591 10.6763 -0.0047846 -0.00154635 -0.00106167
80 2 3.4706 9.40284 10.3127 0.0301208 0.0147697 -0.00672769
81 2 6.30785 10.663 8.61644 -0.02249 0.00271304 0.00303333
82 1 6.09717 5.83675 9.78199 0.00374529 0.00448826 0.00249238
83 2 5.48683 6.53178 9.92824 -0.00954145 -0.00205231 -0.0158653
84 2 6.14372 5.28157 10.5943 -0.0201539 0.0190694 -0.0238324
85 1 10.0024 13.6997 2.18836 -0.000465955 0.0107476 0.00225115
86 2 9.64435 12.9208 11.5795 0.0166301 -0.0213584 -0.00367656
87 2 3.10717 4.54422 10.2825 -0.000843579 0.00259433 0.0163137
88 1 7.96696 11.7582 5.85636 -0.000516526 -0.000749572 -0.00450223
89 2 7.18415 11.3516 6.14789 0.0081385 0.00499932 0.0104462
90 2 7.699 12.6948 5.73686 0.0108554 0.00973062 -0.0118356
91 1 4.54504 5.9583 6.11476 -0.00469519 0.004166 0.00431249
92 2 4.47273 7.56422 6.65372 -0.0193498 -0.0291658 0.0032414
93 2 3.87771 4.68207 6.97334 -0.00114957 -0.03587 -0.0281918
94 1 4.04255 4.1794 7.83331 -0.00484492 0.00513762 0.000795613
95 2 4.27388 4.82103 8.49661 0.0193425 0.00586285 -0.00417413
96 2 4.16797 5.66275 5.26953 0.00557259 0.0351892 -0.0224216
ITEM: TIMESTEP
4
ITEM: NUMBER OF ATOMS
96
ITEM: BOX BOUNDS pp pp pp
2.9236100000000000e+00 1.2773600000000000e+01
4.0306300000000004e+00 1.3880599999999999e+01
2.1372399999999998e+00 1.1987200000000000e+01
ITEM: ATOMS id type x y z vx vy vz
1 1 5.65092 4.32607 2.4341 0.00608647 -0.00282291 0.00177742
2 2 5.37042 13.2833 2.64054 0.00499002 -0.00397303 0.0667766
3 2 11.0188 13.5523 11.9514 -0.00254743 0.00233579 0.00160238
4 1 12.5175 12.9752 11.6414 0.00508457 0.00121596 -0.00219863
5 2 12.6885 12.0919 11.1842 0.0294042 -0.0279334 -0.00102111
6 2 3.19445 12.8914 2.62279 -0.0111403 0.0230747 0.0160748
7 1 11.6349 7.16666 3.79529 -0.00125129 0.000603558 0.00554881
8 2 10.696 6.87506 3.87895 0.0298288 0.0131739 0.0121244
9 2 9.6422 8.46645 7.75795 0.0130941 0.00914571 0.0155608
10 1 8.71396 8.67466 7.91091 -0.00509006 -0.00416017 0.00071943
11 2 8.33368 7.80696 8.04186 0.0220453 -0.0164156 0.00705641
12 2 7.50216 9.73477 9.03236 0.0032006 -0.00221227 0.000164
13 1 6.25756 9.13228 11.9783 0.00342243 0.0119591 -0.00331095
14 2 6.59349 9.79456 11.319 0.0047862 -0.0059528 -0.0106934
15 2 5.36019 8.77865 11.6694 0.00524809 0.0166492 -0.00929306
16 1 8.5792 7.46963 11.9555 0.00208775 -0.000758547 -0.000399965
17 2 8.55824 7.03304 3.77728 0.00381391 -2.55714e-05 -0.00443544
18 2 7.76758 8.03529 2.1569 -0.0129226 -0.005288 0.0141477
19 1 4.0777 7.50673 11.5068 -0.00604419 -0.00425813 -0.00234028
20 2 3.73704 7.29631 2.53458 -0.0164796 0.00712849 -0.0156361
21 2 12.1543 10.0233 11.1861 0.0097159 -0.016679 -0.00942283
22 1 10.3858 9.634 11.9846 0.000714085 0.00161485 -0.00162824
23 2 10.2798 9.83041 3.11732 0.0105111 0.0111539 0.00782192
24 2 9.35692 8.02208 11.7515 0.0209077 0.00857707 -0.010731
25 1 4.15844 8.52925 6.76099 -0.000613895 -0.0017116 0.00308772
26 2 3.78735 8.73136 5.81731 0.0151728 0.00175893 -0.0397371
27 2 12.4612 5.27719 4.00043 0.00148368 0.0194553 -0.0185652
28 1 8.89591 6.84564 4.70588 0.00209065 3.68053e-05 -0.00277252
29 2 9.1527 5.86981 4.69586 0.00623235 -0.00122284 -0.0168891
30 2 7.52166 6.13883 5.35962 0.0115616 0.0252418 0.00497759
31 1 3.34438 9.6889 4.47626 -0.00339997 -0.00641591 -0.00642091
32 2 12.6425 10.4612 4.7027 -0.00512193 -0.00201378 0.0105943
33 2 4.19707 10.0942 4.04346 -0.0127008 0.0240129 0.00711377
34 1 8.27761 5.456 8.11185 0.000837174 -0.00296209 0.000930657
35 2 8.51635 4.53506 7.92493 0.00768061 0.0104757 -0.0118202
36 2 7.75309 5.55224 8.97822 0.0229749 -0.0101619 0.0110851
37 1 8.99866 11.5786 10.5104 0.00315897 -0.00184248 0.00163408
38 2 9.4101 12.1378 9.79344 -0.0036997 -0.0139009 -0.0360476
39 2 9.99522 10.3331 11.3992 0.00852992 -0.0107496 -0.0137495
40 1 12.1032 12.0828 5.28999 0.00511303 -0.00121459 -0.00375768
41 2 3.03519 13.7312 4.54167 -0.00488615 0.0383509 -0.00914105
42 2 11.2375 12.3454 5.13342 0.00733851 0.0107661 0.0052145
43 1 3.37045 4.68666 4.08858 -0.00506999 0.0026159 0.00083573
44 2 11.635 8.15093 3.8525 -0.0100356 -0.0142146 0.000824302
45 2 4.88089 4.81316 2.84916 0.0139509 0.0421497 -0.00606599
46 1 9.71021 12.5614 8.00949 -0.00260003 -0.00103925 -0.00304039
47 2 9.2083 12.1551 7.27736 0.0141159 -0.0281253 0.00892292
48 2 10.5768 12.0323 8.00979 -0.000796543 0.0112988 -0.00932006
49 1 10.3642 6.14898 9.77542 -0.00515214 -0.000184475 0.00205064
50 2 9.70216 5.76743 9.0608 -0.00875862 0.00546763 -0.0159025
51 2 9.75633 6.3633 10.5044 -0.0123708 0.00785459 -0.0253958
52 1 9.71522 9.70394 4.76575 -0.00579593 0.00152621 0.000712937
53 2 9.45611 8.79069 4.97789 0.0158406 -0.0152324 0.00712539
54 2 8.96903 10.2632 5.14853 -0.0140017 0.00853861 -0.0136492
55 1 4.73839 11.3301 2.97461 0.00452001 -0.00740985 -0.000979762
56 2 5.44514 10.6744 3.07699 -0.028008 0.0159414 0.028746
57 2 4.17144 10.9467 2.29217 0.0253208 0.0268569 0.0148447
58 1 6.82961 10.3698 9.41037 -0.00368405 -0.00842345 -0.00094266
59 2 4.93227 11.8634 7.29026 0.000471422 -0.0191438 0.00295321
60 2 8.11319 11.2207 10.1543 -0.017379 -0.0176321 0.0196261
61 1 7.08186 5.3042 5.74006 0.00600214 0.00303965 -0.00114006
62 2 7.29106 5.37327 6.74253 -0.0233139 0.00236116 -0.00447257
63 2 5.59227 5.78402 5.89492 -0.0542749 -0.0110277 0.00178106
64 1 5.5651 11.1624 7.15787 0.00539107 -0.000844161 -0.00156802
65 2 4.97154 10.3957 6.98553 -0.00576686 -0.0120538 0.00921589
66 2 12.1626 11.6742 6.11816 0.0196436 0.00538218 0.00665473
67 1 12.3587 11.7972 8.21773 -0.00327865 0.00296255 0.00312998
68 2 2.97031 12.714 8.05973 0.0182504 -0.00240246 -0.0112042
69 2 12.5913 11.5058 9.14277 -0.0305379 -0.0230254 -0.0135401
70 1 9.81243 4.32312 4.83201 0.00162958 0.00361509 0.00108367
71 2 9.94471 13.7979 3.86085 -0.0169962 0.0201014 -0.0260592
72 2 8.99417 13.8083 5.1349 -0.0173024 0.00784767 0.0142224
73 1 11.51 8.33102 8.17139 -0.00157301 -0.00627581 0.00344879
74 2 11.3047 7.65187 8.76603 -0.00407131 -0.0103494 0.0240304
75 2 12.3409 8.05215 7.66811 -0.00707209 0.010164 0.0144205
76 1 3.11752 5.39068 9.87636 0.00575513 -0.00927699 0.00428349
77 2 12.0239 5.63992 9.83173 -0.000841919 -0.00541976 0.00352875
78 2 3.60396 6.83882 10.9509 0.00805573 0.0133458 0.026102
79 1 3.10718 10.2583 10.6758 -0.00471013 -0.00159228 -0.00113849
80 2 3.48466 9.41117 10.3104 0.0260206 0.0183929 -0.00267655