ITEM: TIMESTEP
0
ITEM: NUMBER OF ATOMS
96
ITEM: BOX BOUNDS pp pp pp
2.9236100000000000e+00 1.2773600000000000e+01
4.0306300000000004e+00 1.3880599999999999e+01
2.1372399999999998e+00 1.1987200000000000e+01
ITEM: ATOMS id type x y z vx vy vz
1 1 5.63761 4.33241 2.43094 -0.00693077 0.00345083 -0.00157133
2 2 5.3685 13.2771 2.50339 0.00295941 -0.0128853 -0.0702328
3 2 11.0112 13.5564 11.9522 -0.0103936 0.00515433 0.00173803
4 1 12.5088 12.9718 11.6453 -0.00365951 -0.00172827 0.00180711
5 2 12.625 12.1552 11.1914 -0.0331264 0.0281944 0.00189444
6 2 3.21124 12.8491 2.5851 0.00704652 -0.0191639 -0.0189536
7 1 11.6365 7.16555 3.78418 0.000130997 -0.000533643 -0.0055347
8 2 10.663 6.8689 3.85584 0.000399044 0.00836549 -0.0110431
9 2 9.62655 8.4524 7.72731 -0.00127129 -0.00591004 -0.0151606
10 1 8.72319 8.68301 7.90967 0.00400293 0.00423897 -0.000506387
11 2 8.28855 7.83505 8.02709 -0.0220819 0.0118565 -0.00783703
12 2 7.49015 9.74404 9.03405 -0.00736526 0.00615019 0.00267017
13 1 6.25068 9.10897 11.9849 -0.00335389 -0.0112507 0.00341296
14 2 6.56674 9.78866 11.3421 -0.0213261 -0.0112774 0.0114937
15 2 5.37161 8.75297 11.6877 0.0139716 -0.00998762 0.00807225
16 1 8.57448 7.46994 11.9564 -0.00269329 -0.000613389 0.000566567
17 2 8.55406 7.03525 3.78091 1.03939e-05 0.00120746 -1.09306e-05
18 2 7.79554 8.05106 11.9749 0.0118326 0.0108106 -0.0171796
19 1 4.08882 7.51415 11.5109 0.00489577 0.00292549 0.00167569
20 2 3.76931 7.28749 2.56153 0.016054 -0.00189462 0.00827788
21 2 12.1433 10.0479 11.1954 -0.00011501 0.00916363 -0.000787079
22 1 10.3849 9.63054 2.13724 -0.000141475 -0.001798 0.000822813
23 2 10.2506 9.81392 3.08996 -0.0182122 -0.00535491 -0.0160043
24 2 9.31871 8.02231 11.7765 -0.0126302 0.0100525 0.0130531
25 1 4.15956 8.5315 6.75393 0.000642069 0.000766168 -0.00337921
26 2 3.75756 8.73952 5.90523 -0.0176388 0.01056 0.0405314
27 2 12.4531 5.24128 4.03771 -0.0066213 -0.0159205 0.0183447
28 1 8.8915 6.84599 4.71112 -0.00228599 0.000357779 0.00245204
29 2 9.15051 5.86555 4.73062 0.00324457 -0.00381172 0.0169579
30 2 7.49836 6.09155 5.3447 -0.00999602 -0.0184922 -0.0117576
31 1 3.3526 9.70135 4.48835 0.00468417 0.00586723 0.00568055
32 2 12.651 10.47 4.6825 0.00323989 0.00835583 -0.00970602
33 2 4.19249 10.0405 4.04333 -0.0142683 -0.0268456 0.00496811
34 1 8.2761 5.46282 8.11061 -0.000689472 0.00366443 -0.000396883
35 2 8.49969 4.51121 7.96493 -0.00914546 -0.0111273 0.0278152
36 2 7.7059 5.55779 8.9363 -0.0243601 -0.0038541 -0.0297535
37 1 8.99264 11.5824 10.5075 -0.00274756 0.00193305 -0.000984282
38 2 9.40967 12.1584 9.85583 -0.00155824 0.00938676 0.0237127
39 2 9.97588 10.3512 11.4434 -0.0104972 0.00684893 0.0290022
40 1 12.0952 12.0856 5.29547 -0.00313647 0.00160569 0.00186149
41 2 3.0474 13.6714 4.55288 0.00923784 -0.0174447 -0.000189498
42 2 11.1936 12.3293 5.12885 -0.0323336 -0.00637445 0.000780299
43 1 3.38048 4.68048 4.08746 0.00478821 -0.00386707 -0.000103168
44 2 11.6488 8.1542 3.85136 0.00342341 -0.0118816 -0.000412208
45 2 4.86942 4.73111 2.85343 -0.00156913 -0.0361113 0.000703635
46 1 9.71618 12.5625 8.01548 0.00325441 0.000151197 0.00292667
47 2 9.17896 12.2138 7.26348 -0.0129744 0.02995 -0.00387783
48 2 10.5689 12.0254 8.03067 -0.00928338 0.00363957 0.0103556
49 1 10.372 6.14925 9.77047 0.00281219 0.000251506 -0.00253611
50 2 9.74332 5.76704 9.1087 0.0283156 0.00313801 0.0286065
51 2 9.79166 6.34693 10.5527 0.0234068 -0.00907964 0.0207531
52 1 9.72584 9.70152 4.76505 0.00494558 -0.000873887 -2.40721e-05
53 2 9.42588 8.81992 4.96102 -0.0142227 0.0105082 -0.00951299
54 2 9.01389 10.2396 5.16725 0.0285731 -0.0120451 0.0060989
55 1 4.7298 11.3437 2.97648 -0.00398778 0.00550771 0.000472487
56 2 5.50246 10.6535 3.00978 0.0222426 0.000320567 -0.0374595
57 2 4.12391 10.8997 2.2638 -0.0178283 -0.01607 -0.00783803
58 1 6.83778 10.3856 9.41249 0.00446273 0.00729964 0.00117123
59 2 4.92901 11.9056 7.28804 -0.00151572 0.0203856 0.000181598
60 2 8.15336 11.2617 10.1127 0.0185371 0.0213488 -0.0229913
61 1 7.06952 5.29791 5.74333 -0.00627087 -0.00353701 0.00211657
62 2 7.33451 5.36557 6.74109 0.0205065 -0.00514541 -0.00384101
63 2 5.68649 5.80598 5.90644 0.0321855 0.0109028 0.0118173
64 1 5.55369 11.1638 7.16061 -0.00594303 0.00086985 0.00120205
65 2 4.98454 10.4187 6.96823 0.00487893 0.00934948 -0.00840792
66 2 12.1141 11.6584 6.13596 -0.0283323 -0.00945095 0.0219326
67 1 12.3659 11.7923 8.2124 0.00388082 -0.00206472 -0.0020267
68 2 2.92478 12.6977 8.08907 -0.025985 -0.0149775 0.0153821
69 2 12.6466 11.5542 9.14738 0.0235256 0.0232831 -0.00899775
70 1 9.8104 4.31565 4.82862 -0.00028899 -0.00372143 -0.00208707
71 2 9.97208 13.7684 3.9221 0.0113835 -0.0104509 0.0313218
72 2 9.01366 13.7845 5.11309 -0.000459747 -0.0169826 -0.00611803
73 1 11.5148 8.34429 8.16235 0.00330513 0.00693955 -0.00559075
74 2 11.3091 7.64771 8.73581 -0.000179704 -0.0141609 -0.00602895
75 2 12.3369 8.04456 7.65365 -0.0113944 0.00314923 -3.11279e-05
76 1 3.10702 5.41019 9.86761 -0.00468531 0.0101148 -0.00437644
77 2 12.0123 5.65557 9.82108 -0.0123358 0.00964917 -0.00679434
78 2 3.60092 6.82438 10.9076 0.0072295 0.00197986 -0.0130433
79 1 3.11676 10.2612 10.6779 0.00473367 0.00124816 0.00109699
80 2 3.41738 9.3891 10.3314 -0.0396699 -0.00409707 0.0174603
81 2 6.3389 10.6635 8.61077 0.0179621 0.00399036 -0.00480775
82 1 6.09242 5.8292 9.77823 -0.00262395 -0.0056519 -0.00232728
83 2 5.49539 6.53635 9.96075 0.00260385 0.00341538 0.0272122
84 2 6.16734 5.26266 10.6247 0.011109 -0.00443027 0.0138932
85 1 10.0035 13.6837 2.1852 0.000937617 -0.0104265 -0.00187276
86 2 9.61237 12.9495 11.5848 -0.0257238 0.0149182 0.00214594
87 2 3.10999 4.53135 10.2648 0.00250101 -0.0123933 -0.00811219
88 1 7.96856 11.7602 5.86269 0.00147554 0.00178331 0.00401295
89 2 7.16078 11.3377 6.13779 -0.0208441 -0.0128024 -0.00374153
90 2 7.68334 12.677 5.7547 -0.010107 -0.0127338 0.0116781
91 1 4.55344 5.95223 6.10818 0.00651054 -0.00386942 -0.00440232
92 2 4.50021 7.61325 6.65238 0.0182512 0.0325357 0.000708857
93 2 3.88149 4.73615 7.01572 0.00362274 0.0356544 0.0265459
94 1 4.0498 4.17082 7.8316 0.00485339 -0.00616758 -0.00141929
95 2 4.24496 4.81861 8.51249 -0.0189332 0.00132376 0.0176094
96 2 4.14957 5.60791 5.29482 -0.0166054 -0.0379739 0.0116785
ITEM: TIMESTEP
1
ITEM: NUMBER OF ATOMS
96
ITEM: BOX BOUNDS pp pp pp
2.9236100000000000e+00 1.2773600000000000e+01
4.0306300000000004e+00 1.3880599999999999e+01
2.1372399999999998e+00 1.1987200000000000e+01
ITEM: ATOMS id type x y z vx vy vz
1 1 5.63414 4.33415 2.43014 -0.00689823 0.00347437 -0.0016762
2 2 5.37048 13.2693 2.46806 0.00501375 -0.0177094 -0.0710813
3 2 11.0052 13.5592 11.9531 -0.0132427 0.00583351 0.00187402
4 1 12.507 12.971 11.6462 -0.00337549 -0.00148395 0.00178004
5 2 12.6084 12.1681 11.1917 -0.03337 0.0223539 -0.00143574
6 2 3.21476 12.8398 2.57589 0.00729034 -0.018273 -0.0174854
7 1 11.6365 7.16528 3.78142 -0.000227943 -0.000576959 -0.00552424
8 2 10.6655 6.87455 3.85039 0.00912756 0.0140503 -0.010731
9 2 9.62677 8.4495 7.71976 0.00198019 -0.00578385 -0.0149787
10 1 8.72511 8.68514 7.90943 0.00365973 0.00427042 -0.000450201
11 2 8.2777 7.84076 8.0231 -0.0210795 0.0111237 -0.00817926
12 2 7.48647 9.74719 9.03568 -0.0070906 0.0062136 0.0038753
13 1 6.24903 9.1034 11.9866 -0.00322249 -0.0110119 0.00356545
14 2 6.55522 9.78213 11.3477 -0.0244341 -0.0144102 0.0104889
15 2 5.37924 8.74818 11.6915 0.0157683 -0.00948847 0.00687717
16 1 8.57309 7.46953 11.9567 -0.00286442 -0.00102073 0.000621528
17 2 8.55437 7.03576 3.78076 0.00131168 0.0006922 -0.000462851
18 2 7.80089 8.05683 11.9662 0.00922639 0.0121254 -0.0174488
19 1 4.09117 7.5155 11.5117 0.00450866 0.00246155 0.00145019
20 2 3.77733 7.28683 2.56477 0.0159827 -0.000842562 0.00450519
21 2 12.144 10.0522 11.1943 0.00268871 0.00838846 -0.00345763
22 1 10.3849 9.62964 2.13758 -3.08539e-06 -0.00181532 0.000503973
23 2 10.2411 9.81158 3.08208 -0.0196836 -0.0041202 -0.0148066
24 2 9.3136 8.02863 11.783 -0.00752811 0.0150236 0.0129457
25 1 4.15991 8.53187 6.75232 0.000757898 0.000749003 -0.002971
26 2 3.74807 8.74565 5.9243 -0.0207188 0.0139485 0.0347945
27 2 12.4495 5.23361 4.0468 -0.00770848 -0.0147356 0.0179679
28 1 8.89035 6.84619 4.71232 -0.00232079 0.00041271 0.0023673
29 2 9.15258 5.86364 4.73895 0.00491318 -0.00346323 0.0161911
30 2 7.49374 6.08326 5.33812 -0.008323 -0.014437 -0.0146944
31 1 3.35499 9.70422 4.49115 0.00481928 0.00558961 0.00554655
32 2 12.6525 10.4748 4.67769 0.00264195 0.0110304 -0.00950719
33 2 4.18434 10.0274 4.04615 -0.0173949 -0.0251863 0.00584858
34 1 8.27576 5.46466 8.11043 -0.000654301 0.00366608 -0.000355188
35 2 8.49501 4.50597 7.97974 -0.00949958 -0.00951929 0.0312437
36 2 7.69358 5.55515 8.92051 -0.0250942 -0.00645683 -0.0329996
37 1 8.99131 11.5834 10.5071 -0.00255893 0.00193607 -0.000643205
38 2 9.409 12.1632 9.86653 -0.000764012 0.0103265 0.0188984
39 2 9.97054 10.3543 11.4585 -0.0108573 0.00579439 0.0311068
40 1 12.0937 12.0864 5.29632 -0.00296731 0.00167081 0.00158711
41 2 3.05255 13.6645 4.55191 0.0114442 -0.010111 -0.00373249
42 2 11.1768 12.3262 5.12966 -0.0338196 -0.00633378 0.00249682
43 1 3.38283 4.67843 4.08748 0.00459328 -0.00434802 0.000188774
44 2 11.6501 8.14666 3.85117 0.00167568 -0.0177284 -0.000327949
45 2 4.86869 4.71402 2.85389 -0.00201758 -0.0319523 0.00158177
46 1 9.71782 12.5625 8.01693 0.00328982 3.38809e-05 0.00289337
47 2 9.17289 12.2288 7.26201 -0.011062 0.0297674 -0.00199354
48 2 10.5636 12.028 8.03571 -0.0116513 0.00628336 0.00961875
49 1 10.3733 6.14941 9.76924 0.00248038 0.000432485 -0.00233686
50 2 9.75791 5.76875 9.12312 0.0289955 0.00310853 0.0281762
51 2 9.80407 6.34224 10.5625 0.0260506 -0.00969431 0.0184139
52 1 9.72829 9.70112 4.76507 0.00487301 -0.000733395 9.59237e-05
53 2 9.41889 8.82433 4.95615 -0.0137443 0.00678515 -0.00995313
54 2 9.02863 10.2339 5.17005 0.0297881 -0.0101491 0.00545355
55 1 4.72785 11.3462 2.97662 -0.00378819 0.00458026 3.03717e-05
56 2 5.51212 10.6554 2.99073 0.0158121 0.00790908 -0.0384418
57 2 4.11612 10.893 2.26117 -0.0130224 -0.0105147 -0.00222468
58 1 6.84005 10.3892 9.41309 0.0046129 0.00701394 0.00121633
59 2 4.92839 11.9154 7.28823 -0.000810903 0.0185374 0.000517861
60 2 8.162 11.2723 10.1008 0.0154584 0.020611 -0.0246407
61 1 7.06638 5.29606 5.74444 -0.00625131 -0.00387159 0.0023199
62 2 7.34467 5.36286 6.73901 0.0202021 -0.00561948 -0.00417543
63 2 5.69998 5.81142 5.91294 0.0210093 0.0108116 0.0139273
64 1 5.5507 11.1643 7.16119 -0.00601779 0.00110702 0.00113638
65 2 4.98654 10.4229 6.96402 0.00280719 0.00743768 -0.00848681
66 2 12.0995 11.6537 6.14809 -0.029925 -0.00890296 0.025555
67 1 12.3679 11.7913 8.21148 0.00397622 -0.00198541 -0.00166703
68 2 12.7615 12.6899 8.09654 -0.026571 -0.0153193 0.0139836
69 2 12.6578 11.5655 9.1416 0.0210441 0.0213005 -0.0136591
70 1 9.81035 4.3138 4.82756 5.63215e-05 -0.00365693 -0.00211047
71 2 9.9776 13.7636 3.93741 0.0109005 -0.00918119 0.0292116
72 2 9.01202 13.7753 5.11072 -0.00588009 -0.0196095 -0.00339852
73 1 11.5166 8.34778 8.15943 0.00367265 0.0069971 -0.00602037
74 2 11.3087 7.63933 8.73379 -0.00121556 -0.0186293 -0.00255022
75 2 12.3301 8.04701 7.65446 -0.0153079 0.00653558 0.00300342
76 1 3.10475 5.41527 9.86543 -0.00440925 0.01018 -0.00431682
77 2 12.0054 5.66052 9.81755 -0.0146278 0.00989666 -0.00725436
78 2 3.60577 6.82672 10.9025 0.012131 0.0073917 -0.00722211
79 1 3.11911 10.2618 10.6785 0.00463243 0.00115037 0.00119401
80 2 3.39702 9.38778 10.3408 -0.0412861 -0.00163407 0.0199384
81 2 6.34733 10.6662 8.60818 0.0156271 0.00678171 -0.00552686
82 1 6.09119 5.82627 9.77712 -0.00231976 -0.00606071 -0.00208022
83 2 5.49629 6.53802 9.97522 0.00130535 0.00298538 0.0304388
84 2 6.17211 5.26196 10.6303 0.00800391 0.00170078 0.00819826
85 1 10.004 13.6786 2.18431 0.00100761 -0.0101272 -0.00165906
86 2 9.59882 12.9561 11.5855 -0.0282725 0.0110496 0.000497616
87 2 3.11128 4.52484 10.2612 0.00252003 -0.01281 -0.00646192
88 1 7.96934 11.7612 5.86467 0.00160503 0.0019733 0.00394397
89 2 7.14982 11.3309 6.13631 -0.0220757 -0.0141678 -0.00247128
90 2 7.67833 12.6707 5.76047 -0.00999477 -0.0122446 0.0113431
91 1 4.55684 5.95033 6.10598 0.00707252 -0.00371718 -0.00438606
92 2 4.50945 7.62905 6.65289 0.0189202 0.0298176 0.00104223
93 2 3.88347 4.75383 7.02852 0.00427992 0.0348257 0.0244131
94 1 4.05223 4.16768 7.83085 0.00489021 -0.0063114 -0.0015342
95 2 4.23556 4.81955 8.52248 -0.0186885 0.00177681 0.0221491
96 2 4.14085 5.58871 5.29989 -0.0176056 -0.0387185 0.00892049
ITEM: TIMESTEP
2
ITEM: NUMBER OF ATOMS
96
ITEM: BOX BOUNDS pp pp pp
2.9236100000000000e+00 1.2773600000000000e+01
4.0306300000000004e+00 1.3880599999999999e+01
2.1372399999999998e+00 1.1987200000000000e+01
ITEM: ATOMS id type x y z vx vy vz
1 1 5.63071 4.33588 2.42926 -0.00679528 0.00339051 -0.00183579
2 2 5.37351 13.2594 2.43231 0.0071751 -0.0212789 -0.0718168
3 2 10.998 13.5622 11.9541 -0.0154289 0.00597325 0.00165948
4 1 12.5054 12.9703 11.6471 -0.00311629 -0.00112334 0.00177397
5 2 12.5916 12.1776 11.19 -0.0334941 0.014755 -0.00586167
6 2 3.21853 12.8308 2.56761 0.00799413 -0.0174849 -0.0153545
7 1 11.6363 7.16497 3.77866 -0.000536392 -0.000673714 -0.00552121
8 2 10.6721 6.88295 3.84511 0.0168814 0.0192099 -0.0103499
9 2 9.62853 8.44662 7.71233 0.00474134 -0.00577328 -0.0146347
10 1 8.72685 8.68728 7.90922 0.00332288 0.00428876 -0.000398392
11 2 8.26747 7.84617 8.01891 -0.0195866 0.0106891 -0.00860178
12 2 7.48306 9.75025 9.03793 -0.00628102 0.00583687 0.0051143
13 1 6.24746 9.09796 2.13851 -0.00303014 -0.0107676 0.00378275
14 2 6.54231 9.77425 11.3526 -0.0268148 -0.0166187 0.00874804
15 2 5.38738 8.74348 11.6946 0.0160029 -0.00966595 0.00532925
16 1 8.57162 7.46892 11.957 -0.00301071 -0.0013851 0.000670258
17 2 8.55537 7.03594 3.78045 0.00273513 -9.44675e-05 -0.000738088
18 2 7.80477 8.06319 11.9575 0.00610134 0.0130887 -0.017554
19 1 4.09333 7.51661 11.5124 0.00412795 0.00200291 0.00121876
20 2 3.78529 7.28665 2.56604 0.0157693 2.52904e-05 0.000570718
21 2 12.146 10.0563 11.1919 0.00521236 0.00811531 -0.00583338
22 1 10.3849 9.62872 2.13774 0.000127146 -0.00182895 0.000163235
23 2 10.2309 9.8098 3.07515 -0.0209153 -0.00316698 -0.0122869
24 2 9.31118 8.03733 11.7894 -0.00213954 0.0194399 0.0128338
25 1 4.16032 8.53225 6.75096 0.000903594 0.000823882 -0.00241914
26 2 3.73684 8.75347 5.94002 -0.0244631 0.0171851 0.0275265
27 2 12.4454 5.22654 4.05568 -0.00855849 -0.0135376 0.0174569
28 1 8.88918 6.8464 4.71349 -0.00235979 0.000439938 0.0022879
29 2 9.15542 5.86209 4.74681 0.00632901 -0.00245342 0.0151242
30 2 7.49004 6.07711 5.33001 -0.00641397 -0.0101195 -0.0177538
31 1 3.35742 9.70694 4.4939 0.00483507 0.00526672 0.00546491
32 2 12.6536 10.481 4.67299 0.00203705 0.0139003 -0.00928574
33 2 4.1751 10.0153 4.04918 -0.0186156 -0.0227644 0.00574641
34 1 8.27545 5.46649 8.11025 -0.00061066 0.0035979 -0.000358505
35 2 8.49019 4.50169 7.99617 -0.00969407 -0.00740139 0.0342197
36 2 7.68081 5.55133 8.9033 -0.0261932 -0.00848988 -0.0353426
37 1 8.99008 11.5843 10.5069 -0.00235099 0.00194522 -0.000273299
38 2 9.40891 12.1687 9.87473 0.000676801 0.0117737 0.0138867
39 2 9.96502 10.357 11.4745 -0.0112461 0.00491955 0.0321764
40 1 12.0922 12.0873 5.29706 -0.00296668 0.00169483 0.00143944
41 2 3.05884 13.6613 4.54915 0.0137005 -0.00296478 -0.00720735
42 2 11.1598 12.323 5.13135 -0.0329354 -0.00670992 0.00426525
43 1 3.38507 4.67613 4.08765 0.00436585 -0.00482631 0.000486589
44 2 11.6505 8.13647 3.85103 6.22263e-05 -0.0221854 -0.000193733
45 2 4.8674 4.69916 2.85501 -0.00361948 -0.0274409 0.00320552
46 1 9.71947 12.5625 8.01837 0.00325228 -1.45313e-05 0.00287397
47 2 9.1679 12.2436 7.26149 -0.00876696 0.0292246 -0.000129887
48 2 10.5572 12.0317 8.04029 -0.0134291 0.00815266 0.00853358
49 1 10.3745 6.14968 9.76813 0.00229481 0.000693734 -0.0020154
50 2 9.77232 5.77015 9.13688 0.0275898 0.00188679 0.0259338
51 2 9.81771 6.33724 10.5711 0.0282923 -0.0103154 0.0160775
52 1 9.73071 9.70079 4.76515 0.00487118 -0.000637 0.000183213
53 2 9.41214 8.82671 4.95107 -0.013239 0.00253354 -0.0103873
54 2 9.04368 10.2295 5.1727 0.0297915 -0.00706785 0.0055224
55 1 4.72601 11.3483 2.97651 -0.00356784 0.00358323 -0.000495185
56 2 5.51827 10.6614 2.97134 0.00852653 0.0161133 -0.0388332
57 2 4.11089 10.8892 2.26158 -0.00780004 -0.00435603 0.00405922
58 1 6.84239 10.3926 9.41371 0.00473026 0.00674506 0.00125005
59 2 4.9282 11.9241 7.28856 0.000128161 0.0160156 0.000707341
60 2 8.16882 11.2823 10.0881 0.0114284 0.0193453 -0.0264634
61 1 7.06327 5.29404 5.74565 -0.00618098 -0.00424722 0.00249344
62 2 7.35471 5.35995 6.73691 0.0200445 -0.00595999 -0.00406178
63 2 5.7075 5.81679 5.92037 0.0086027 0.0106295 0.0155467
64 1 5.54767 11.1649 7.16175 -0.00606732 0.0014098 0.00107902
65 2 4.98735 10.4261 6.95974 0.000195205 0.00523242 -0.00864762
66 2 12.0842 11.6495 6.16151 -0.0310948 -0.0073697 0.0270435
67 1 12.3699 11.7903 8.21073 0.00402965 -0.00198459 -0.00131985
68 2 12.7482 12.6824 8.10305 -0.026521 -0.0136303 0.0116291
69 2 12.6676 11.5755 9.13372 0.0185748 0.0183878 -0.0172271
70 1 9.81046 4.31199 4.82651 0.000337288 -0.00357834 -0.00201926
71 2 9.98298 13.7592 3.95131 0.010781 -0.0084605 0.0257613
72 2 9.00778 13.7649 5.10969 -0.010624 -0.0218835 -0.000865108
73 1 11.5185 8.35129 8.15633 0.00394435 0.00697421 -0.00633238
74 2 11.3079 7.62908 8.73326 -0.001938 -0.021517 -0.000219885
75 2 12.3216 8.0511 7.65665 -0.0181911 0.00961 0.00535156
76 1 3.10261 5.42037 9.86329 -0.00415633 0.0101635 -0.00422566
77 2 11.9977 5.66547 9.81383 -0.0159385 0.00964652 -0.00753638
78 2 3.61305 6.83177 10.9004 0.0168222 0.0126127 -0.00120304
79 1 3.12139 10.2624 10.6791 0.00449809 0.00107855 0.00132433
80 2 3.37609 9.38747 10.3513 -0.0419082 -0.000143124 0.0216179
81 2 6.35453 10.6703 8.60524 0.013126 0.00969433 -0.00611778
82 1 6.0901 5.82314 9.77615 -0.00207462 -0.0064293 -0.00176622
83 2 5.4967 6.53934 9.99119 0.000647742 0.00200542 0.0331312
84 2 6.17534 5.26436 10.6329 0.00503755 0.00778651 0.0020314
85 1 10.0045 13.6736 2.18354 0.000999382 -0.00976445 -0.00141686
86 2 9.5841 12.9605 11.5853 -0.0303822 0.00680893 -0.00143222
87 2 3.11251 4.51854 10.2583 0.00223062 -0.0115666 -0.00543597
88 1 7.97017 11.7622 5.86663 0.00161664 0.00207141 0.0039254
89 2 7.1387 11.3235 6.13532 -0.0214399 -0.0146742 -0.00176368
90 2 7.67335 12.6648 5.76604 -0.00997754 -0.0110392 0.0108872
91 1 4.56051 5.94851 6.10379 0.00756924 -0.00355128 -0.0043664
92 2 4.51913 7.64307 6.65342 0.0199663 0.0256204 0.00075468
93 2 3.88577 4.77098 7.04013 0.00497133 0.0334704 0.0219103
94 1 4.05469 4.16451 7.83007 0.00494352 -0.00632046 -0.00158809
95 2 4.22627 4.82039 8.53464 -0.018562 0.000879347 0.0261364
96 2 4.13196 5.56919 5.30374 -0.017306 -0.0391654 0.00683474
ITEM: TIMESTEP
3
ITEM: NUMBER OF ATOMS
96
ITEM: BOX BOUNDS pp pp pp
2.9236100000000000e+00 1.2773600000000000e+01
4.0306300000000004e+00 1.3880599999999999e+01
2.1372399999999998e+00 1.1987200000000000e+01
ITEM: ATOMS id type x y z vx vy vz
1 1 5.62735 4.33754 2.4283 -0.00664704 0.00318755 -0.00204358
2 2 5.37765 13.2481 2.39624 0.00942081 -0.0229848 -0.0722556
3 2 10.9898 13.5652 11.9548 -0.0167265 0.00557532 0.00107922
4 1 12.5039 12.9699 11.648 -0.0028724 -0.000692123 0.00177638
5 2 12.5749 12.1829 11.1858 -0.0335809 0.00614413 -0.0109106
6 2 3.22275 12.8223 2.56054 0.00901946 -0.0168303 -0.0128318
7 1 11.6359 7.1646 3.77589 -0.000755899 -0.000834097 -0.00553015
8 2 10.6823 6.89376 3.84004 0.0229832 0.0235467 -0.00989167
9 2 9.63151 8.44372 7.70512 0.00678019 -0.00579038 -0.0140711
10 1 8.72843 8.68943 7.90903 0.00300799 0.00428918 -0.000354163
11 2 8.25811 7.85145 8.01449 -0.0176157 0.0105504 -0.00910001
12 2 7.48019 9.75302 9.04079 -0.00500128 0.00504176 0.00630078
13 1 6.246 9.09264 2.14046 -0.00277857 -0.0105269 0.00406055
14 2 6.5284 9.76551 11.3564 -0.0283959 -0.0177998 0.00626164
15 2 5.39524 8.73852 11.6968 0.0147297 -0.0105442 0.0035007
16 1 8.57008 7.46814 11.9574 -0.00311604 -0.00166888 0.000707116
17 2 8.55711 7.03567 3.78003 0.00424574 -0.0010918 -0.000935363
18 2 7.80699 8.06992 11.9487 0.00273187 0.0135276 -0.0175089
19 1 4.0953 7.5175 11.5129 0.00377771 0.00158042 0.000990253
20 2 3.7931 7.28685 2.56534 0.0153376 0.000664571 -0.00316665
21 2 12.1492 10.0603 11.1885 0.00726149 0.00834791 -0.00776823
22 1 10.385 9.62781 2.13774 0.000242171 -0.00183889 -0.000179839
23 2 10.2202 9.80841 3.0698 -0.0218678 -0.00260406 -0.00862871
24 2 9.31146 8.04807 11.7958 0.00299603 0.0229538 0.0128468
25 1 4.16081 8.53269 6.7499 0.00106575 0.000979156 -0.00177305
26 2 3.72361 8.76284 5.95182 -0.028486 0.0200565 0.0194739
27 2 12.4409 5.22007 4.06426 -0.00912198 -0.0123666 0.0168133
28 1 8.88799 6.84663 4.71461 -0.00240854 0.000439877 0.00221958
29 2 9.15891 5.86119 4.75407 0.00754359 -0.000891347 0.013789
30 2 7.48732 6.07314 5.32036 -0.00448268 -0.0059813 -0.0206592
31 1 3.35982 9.70949 4.49662 0.00472173 0.00491258 0.00544492
32 2 12.6545 10.4887 4.66841 0.00150043 0.0167909 -0.00903618
33 2 4.16573 10.0046 4.0519 -0.0178847 -0.0197121 0.00466198
34 1 8.27515 5.46826 8.11007 -0.00055436 0.00346546 -0.000402628
35 2 8.48532 4.49857 8.01396 -0.00963552 -0.00494382 0.0366416
36 2 7.66738 5.54666 8.88516 -0.0277332 -0.00986566 -0.0367203
37 1 8.98896 11.5853 10.5068 -0.00213482 0.00197025 9.46134e-05
38 2 9.40967 12.175 9.88041 0.00255153 0.0134385 0.00898453
39 2 9.9593 10.3593 11.4907 -0.0116775 0.00427646 0.0321276
40 1 12.0907 12.0881 5.29776 -0.00313101 0.00166966 0.00142335
41 2 3.06625 13.6615 4.5447 0.0158178 0.00349171 -0.0103548
42 2 11.1438 12.3195 5.13392 -0.0298391 -0.00740384 0.00599321
43 1 3.3872 4.6736 4.08797 0.00411681 -0.0052683 0.000770593
44 2 11.6501 8.12447 3.85098 -0.00131659 -0.0247891 2.24171e-05
45 2 4.86507 4.68658 2.8571 -0.00600405 -0.0230179 0.00533912
46 1 9.72108 12.5625 8.01981 0.00313718 1.46751e-05 0.00287701
47 2 9.16413 12.258 7.26188 -0.00625249 0.0282967 0.00156892
48 2 10.5502 12.0361 8.04424 -0.0143863 0.00912963 0.00715021
49 1 10.3756 6.1501 9.76722 0.00225586 0.00103308 -0.00159117
50 2 9.7855 5.77063 9.14906 0.0241651 -0.000524125 0.0219737
51 2 9.83236 6.33192 10.5786 0.0300067 -0.0109045 0.0139417
52 1 9.73316 9.70049 4.76526 0.00493268 -0.000599834 0.000238773
53 2 9.40565 8.82686 4.94576 -0.0126682 -0.0018737 -0.0108562
54 2 9.05842 10.2268 5.17557 0.0286564 -0.00292768 0.00630083
55 1 4.72429 11.3498 2.97612 -0.00333355 0.00257915 -0.00107187
56 2 5.52065 10.6716 2.9519 0.00104167 0.0244361 -0.0386015
57 2 4.10832 10.8886 2.26523 -0.00262997 0.00206753 0.0105034
58 1 6.84478 10.3959 9.41434 0.00481088 0.00650036 0.00126906
59 2 4.92852 11.9314 7.28894 0.00118265 0.0129893 0.000780233
60 2 8.17343 11.2916 10.0744 0.00681723 0.0176968 -0.0283049
61 1 7.0602 5.29182 5.74694 -0.00605793 -0.00463132 0.00263513
62 2 7.36471 5.3569 6.73495 0.0199716 -0.00615233 -0.00377357
63 2 5.70859 5.82205 5.92849 -0.00433956 0.010295 0.0167048
64 1 5.54463 11.1657 7.16227 -0.00609427 0.00175476 0.0010271
65 2 4.98673 10.4282 6.95537 -0.00278213 0.00291029 -0.0088441
66 2 12.0684 11.6463 6.17514 -0.0317303 -0.00487174 0.0263999
67 1 12.3719 11.7893 8.21016 0.0040367 -0.00206 -0.00100616
68 2 12.735 12.6762 8.10817 -0.0258885 -0.00998625 0.00844774
69 2 12.6763 11.5839 9.12437 0.0162782 0.0146009 -0.019484
70 1 9.81069 4.31022 4.82554 0.000527144 -0.00350147 -0.001817
71 2 9.98838 13.7551 3.96317 0.0109671 -0.00824085 0.0211607
72 2 9.0014 13.7534 5.10985 -0.0142215 -0.023576 0.00127522
73 1 11.5205 8.35476 8.1531 0.00409395 0.00686653 -0.00650467
74 2 11.3068 7.61782 8.73357 -0.0022685 -0.0226067 0.000810418
75 2 12.3119 8.05662 7.65982 -0.0197099 0.0122263 0.00680508
76 1 3.10059 5.42544 9.86121 -0.00393223 0.0100648 -0.00410958
77 2 11.9895 5.67016 9.81001 -0.0161459 0.00889364 -0.00764864
78 2 3.62259 6.83933 10.9013 0.0209857 0.0172339 0.00456129
79 1 3.1236 10.2629 10.6798 0.00433918 0.00104372 0.00147825
80 2 3.35511 9.38763 10.3625 -0.0415085 0.000228143 0.0224236
81 2 6.36045 10.6759 8.60206 0.0106221 0.0126165 -0.0064696
82 1 6.08912 5.81984 9.77535 -0.00189829 -0.00673217 -0.00140684
83 2 5.49694 6.54002 10.0084 0.000624914 0.000507708 0.0351517
84 2 6.17715 5.26974 10.6323 0.00233982 0.0134039 -0.00412913
85 1 10.005 13.6688 2.1829 0.000893395 -0.00936328 -0.00115731
86 2 9.56844 12.9629 11.5841 -0.0319115 0.00254017 -0.003423
87 2 3.11351 4.51327 10.2558 0.00164249 -0.00875804 -0.00498626
88 1 7.97096 11.7632 5.8686 0.00151266 0.00208117 0.00395233
89 2 7.12838 11.3162 6.13454 -0.0189786 -0.0143173 -0.00158174
90 2 7.66835 12.6596 5.77136 -0.0100481 -0.00920252 0.01033
91 1 4.56441 5.94678 6.10162 0.00798373 -0.00337482 -0.00434934
92 2 4.52941 7.65467 6.65365 0.0211904 0.0204366 -0.000184513
93 2 3.88844 4.7873 7.05043 0.00575313 0.0315071 0.0193275
94 1 4.05718 4.16136 7.82927 0.00500965 -0.00618805 -0.00157764
95 2 4.217 4.82043 8.54862 -0.0186178 -0.00142443 0.0292888
96 2 4.12354 5.54954 5.30672 -0.015829 -0.0392387 0.0054454
ITEM: TIMESTEP
4
ITEM: NUMBER OF ATOMS
96
ITEM: BOX BOUNDS pp pp pp
2.9236100000000000e+00 1.2773600000000000e+01
4.0306300000000004e+00 1.3880599999999999e+01
2.1372399999999998e+00 1.1987200000000000e+01
ITEM: ATOMS id type x y z vx vy vz
1 1 5.62406 4.33907 2.42722 -0.00647796 0.00286716 -0.00229202
2 2 5.38293 13.2364 2.36005 0.0116918 -0.0224939 -0.0722009
3 2 10.9812 13.5678 11.9552 -0.0169729 0.00466127 0.000132056
4 1 12.5026 12.9696 11.6489 -0.00263246 -0.000246335 0.00177063
5 2 12.558 12.1837 11.1791 -0.0336723 -0.00257503 -0.0159729
6 2 3.22755 12.814 2.55478 0.0101689 -0.0163363 -0.0102588
7 1 11.6355 7.16414 3.77313 -0.000852182 -0.00106317 -0.00555487
8 2 10.6951 6.9065 3.83522 0.0268284 0.0268041 -0.00935617
9 2 9.63531 8.44083 7.69826 0.00794534 -0.00575669 -0.0132474
10 1 8.72986 8.69157 7.90887 0.0027274 0.00427011 -0.000320203
11 2 8.24985 7.85672 8.00981 -0.0152155 0.0106643 -0.00966131
12 2 7.47806 9.7553 9.04423 -0.00335257 0.00388601 0.00735594
13 1 6.24468 9.08743 2.14257 -0.00247554 -0.0102969 0.00438728
14 2 6.51391 9.75645 11.3589 -0.0291664 -0.0179496 0.00310158
15 2 5.40211 8.73294 11.6981 0.0121456 -0.012091 0.00150237
16 1 8.5685 7.46725 11.9577 -0.00316797 -0.00183949 0.00072821
17 2 8.55962 7.03485 3.77951 0.00579918 -0.00222882 -0.00116545
18 2 7.8075 8.07671 11.9399 -0.000619407 0.0132967 -0.0173237
19 1 4.09711 7.51819 11.5133 0.00348081 0.00122444 0.000774393
20 2 3.80063 7.28731 2.56287 0.0146216 0.00103573 -0.00636372
21 2 12.1533 10.0646 11.1842 0.00866962 0.00906425 -0.00914349
22 1 10.3851 9.62689 2.13756 0.000333055 -0.0018429 -0.000503533
23 2 10.209 9.8072 3.06652 -0.0224948 -0.00252847 -0.00412085
24 2 9.31418 8.06029 11.8023 0.00740089 0.0252826 0.0130809
25 1 4.16138 8.53323 6.74919 0.00122896 0.00119763 -0.00108846
26 2 3.70836 8.77353 5.9595 -0.0323182 0.0223322 0.0114431
27 2 12.4363 5.21418 4.07249 -0.009369 -0.0112544 0.0160426
28 1 8.88677 6.84684 4.71571 -0.00247258 0.000415713 0.00216806
29 2 9.16297 5.8612 4.7606 0.00862101 0.00106447 0.0122304
30 2 7.48555 6.07113 5.30935 -0.00274501 -0.0024505 -0.0231232
31 1 3.36214 9.71185 4.49934 0.00447958 0.00454521 0.00548961
32 2 12.6551 10.4978 4.66396 0.00112864 0.0195115 -0.00875725
33 2 4.15721 9.9956 4.05384 -0.0153188 -0.016182 0.00266583
34 1 8.27489 5.46995 8.10985 -0.000483429 0.00327674 -0.000478398
35 2 8.48055 4.49675 8.03282 -0.00923586 -0.00232976 0.0384318
36 2 7.65307 5.54147 8.86658 -0.0297478 -0.0105208 -0.0371565
37 1 8.98795 11.5863 10.507 -0.00192242 0.00202125 0.000428204
38 2 9.41146 12.1822 9.88371 0.00461591 0.0150009 0.00448837
39 2 9.95335 10.3613 11.5066 -0.0121453 0.00387415 0.0309463
40 1 12.0891 12.0889 5.29848 -0.00344539 0.00159165 0.00153325
41 2 3.07466 13.6648 4.53879 0.0176261 0.00880172 -0.0129433
42 2 11.1299 12.3156 5.13734 -0.0248573 -0.00829112 0.00756971
43 1 3.38919 4.67086 4.08842 0.00385716 -0.00564308 0.0010226
44 2 11.6492 8.11168 3.85105 -0.00235856 -0.0251991 0.000349717
45 2 4.8614 4.67614 2.86035 -0.00876511 -0.0190469 0.007713
46 1 9.72261 12.5625 8.02125 0.0029446 0.00012589 0.00291023
47 2 9.16165 12.2719 7.26306 -0.00367576 0.0269782 0.00297452
48 2 10.5429 12.0408 8.04744 -0.0143526 0.00914822 0.00552484
49 1 10.3767 6.15072 9.76654 0.00234899 0.00144092 -0.00109347
50 2 9.79648 5.76962 9.15885 0.018981 -0.00399063 0.0165935
51 2 9.84772 6.32633 10.5851 0.0311149 -0.011442 0.0121486
52 1 9.73565 9.70019 4.76538 0.00504094 -0.000631696 0.000268549
53 2 9.39947 8.82483 4.94021 -0.0119838 -0.00601446 -0.0113922
54 2 9.07233 10.2265 5.179 0.026589 0.00201257 0.00769226
55 1 4.72268 11.3509 2.97544 -0.00309419 0.00162869 -0.0016627
56 2 5.51931 10.6858 2.93274 -0.00597183 0.0323712 -0.0377624
57 2 4.10826 10.8913 2.27208 0.00201088 0.00840231 0.0165969
58 1 6.8472 10.3991 9.41498 0.00485366 0.00628523 0.00127075
59 2 4.92938 11.9371 7.28934 0.00222646 0.0096484 0.000771141
60 2 8.17564 11.3 10.0598 0.00204193 0.0158286 -0.0299775
61 1 7.05721 5.28941 5.74829 -0.00588191 -0.00499079 0.00274409
62 2 7.37468 5.3538 6.73314 0.0199042 -0.00618883 -0.00360404
63 2 5.70316 5.82709 5.93707 -0.0170992 0.00973594 0.0174203
64 1 5.54158 11.1667 7.16277 -0.00610268 0.00211558 0.000977286
65 2 4.98457 10.429 6.9509 -0.00592703 0.000669072 -0.00901674
66 2 12.0524 11.6446 6.18791 -0.0317422 -0.00152914 0.0238108
67 1 12.3739 11.7883 8.20973 0.00399727 -0.00219978 -0.00074387
68 2 12.7223 12.6724 8.1115 -0.0247813 -0.00465392 0.0046206
69 2 12.6839 11.5901 9.11424 0.0142982 0.0100479 -0.0203079
70 1 9.81098 4.30849 4.82469 0.000609231 -0.00344219 -0.00151726
71 2 9.99395 13.751 3.97247 0.0113714 -0.00841726 0.0156963
72 2 8.99356 13.7413 5.11097 -0.0163333 -0.0245153 0.00286751
73 1 11.5226 8.35815 8.14982 0.00410377 0.00667872 -0.00652695
74 2 11.3056 7.60647 8.73407 -0.00218168 -0.0218559 0.000531626
75 2 12.3019 8.06332 7.66346 -0.019602 0.0142726 0.00720053
76 1 3.09868 5.43043 9.85918 -0.00373777 0.00988925 -0.00397719
77 2 11.9815 5.67436 9.80618 -0.0152496 0.00768132 -0.0076138
78 2 3.63404 6.84901 10.9049 0.0243296 0.0208689 0.00962628
79 1 3.12573 10.2634 10.6806 0.00416628 0.00105252 0.00164351
80 2 3.33459 9.38769 10.3738 -0.0401299 -0.000568858 0.022345