ITEM: TIMESTEP
0
ITEM: NUMBER OF ATOMS
96
ITEM: BOX BOUNDS pp pp pp
2.9236100000000000e+00 1.2773600000000000e+01
4.0306300000000004e+00 1.3880599999999999e+01
2.1372399999999998e+00 1.1987200000000000e+01
ITEM: ATOMS id type x y z vx vy vz
1 1 5.64448 4.32907 2.43247 0.00670883 -0.00318164 0.00154627
2 2 5.36751 13.2847 2.57278 0.00093702 0.00262653 0.0685883
3 2 11.0183 13.5524 11.9509 0.00375125 -0.00226902 -0.000538104
4 1 12.5128 12.9736 11.6434 0.00431946 0.00176861 -0.00194757
5 2 12.6577 12.1234 11.1876 0.0319171 -0.0328854 -0.00430317
6 2 3.20391 12.8692 2.60469 -0.00815441 0.0211346 0.0193033
7 1 11.636 7.16608 3.78973 -0.000836623 0.000551082 0.00555792
8 2 10.6716 6.86643 3.86714 0.0171037 0.00330261 0.011544
9 2 9.63127 8.45864 7.74256 0.00804656 0.00685443 0.0153052
10 1 8.71886 8.67881 7.91023 -0.00463723 -0.00416963 0.000619437
11 2 8.31117 7.8222 8.03466 0.0227363 -0.0140143 0.00736663
12 2 7.49723 9.73838 9.03246 0.00625006 -0.00478913 -0.000707349
13 1 6.25411 9.12044 11.9816 0.00345585 0.011672 -0.00328551
14 2 6.58436 9.79607 11.3303 0.0134843 0.00304842 -0.0116954
15 2 5.36091 8.76406 11.6788 -0.00617314 0.0126751 -0.00932288
16 1 8.57699 7.47014 11.9559 0.00234601 -0.000181286 -0.000462978
17 2 8.55521 7.03384 3.78022 0.00215881 -0.00126977 -0.00167736
18 2 7.78187 8.04174 2.14167 -0.0145328 -0.00782692 0.0160856
19 1 4.08355 7.51079 11.509 -0.00559345 -0.00374996 -0.00207432
20 2 3.75325 7.29058 2.54999 -0.0160919 0.00437841 -0.0139958
21 2 12.1463 10.0375 11.1934 0.00567441 -0.0121134 -0.0047532
22 1 10.3852 9.63231 11.9861 0.000425955 0.00174054 -0.00133535
23 2 10.2671 9.82068 3.10577 0.0146741 0.00824833 0.0142787
24 2 9.33562 8.01742 11.7635 0.0199119 0.000106884 -0.0126802
25 1 4.15899 8.53062 6.75754 -0.000535603 -0.0010847 0.00363374
26 2 3.77304 8.73233 5.86108 0.0143754 -0.00396878 -0.0452739
27 2 12.4585 5.25832 4.01912 0.00402695 0.0180461 -0.018703
28 1 8.89375 6.84571 4.70858 0.00220856 -0.000179277 -0.00261983
29 2 9.14922 5.869 4.71321 0.000956169 0.00241832 -0.0175363
30 2 7.50961 6.11343 5.35388 0.0119529 0.0242526 0.00714134
31 1 3.34815 9.69526 4.4825 -0.00413416 -0.00625447 -0.00604634
32 2 12.6472 10.464 4.69239 -0.00424993 -0.00415133 0.0100822
33 2 4.2018 10.0681 4.04025 0.00280028 0.0273382 -0.000272023
34 1 8.27682 5.45923 8.11109 0.000754259 -0.00344495 0.000607176
35 2 8.50841 4.5233 7.94088 0.00829897 0.0123101 -0.0200577
36 2 7.72979 5.55857 8.96204 0.0235732 -0.00264695 0.0211415
37 1 8.99555 11.5805 10.5088 0.00303185 -0.00191331 0.00148079
38 2 9.41122 12.1492 9.82779 0.000657226 -0.00985061 -0.0316462
39 2 9.98601 10.3432 11.4174 0.00972085 -0.00911286 -0.0223172
40 1 12.0987 12.0841 5.29322 0.00392924 -0.00140439 -0.00271519
41 2 3.04012 13.6958 4.54974 -0.00578069 0.0305718 -0.00598808
42 2 11.2221 12.3362 5.12968 0.0227062 0.00786003 0.00231868
43 1 3.37554 4.6839 4.08783 -0.00504222 0.0030387 0.000590831
44 2 11.6436 8.15938 3.85184 -0.0069658 -0.00179051 0.000553658
45 2 4.87196 4.77058 2.8527 0.00503113 0.0416806 -0.00170457
46 1 9.71303 12.5622 8.01251 -0.00300235 -0.000541782 -0.00300117
47 2 9.19331 12.184 7.26912 0.0150516 -0.0294213 0.00712937
48 2 10.5755 12.025 8.01996 0.00384313 0.00332515 -0.0106467
49 1 10.3687 6.1491 9.77307 -0.00384449 -0.000108906 0.00253905
50 2 9.71766 5.76496 9.08139 -0.0212696 -0.000130174 -0.0245283
51 2 9.77114 6.35545 10.5298 -0.0175891 0.00809191 -0.0244904
52 1 9.72075 9.70256 4.76522 -0.00528709 0.00121533 0.000344136
53 2 9.44057 8.80652 4.97005 0.0151409 -0.0152158 0.00847574
54 2 8.98769 10.2523 5.15986 -0.0228178 0.0122891 -0.009186
55 1 4.73396 11.3374 2.97568 0.00430942 -0.00691534 -0.00100555
56 2 5.47535 10.6597 3.04565 -0.0298637 0.0113596 0.033763
57 2 4.1457 10.9204 2.27609 0.0245204 0.0241718 0.0151583
58 1 6.83349 10.378 9.41137 -0.00409107 -0.00788499 -0.00106069
59 2 4.9309 11.8842 7.28837 0.0018472 -0.0215704 0.00101676
60 2 8.13298 11.2402 10.1343 -0.0208145 -0.0208574 0.0206013
61 1 7.07576 5.30118 5.74144 0.00618015 0.0030963 -0.00164026
62 2 7.31352 5.37013 6.74394 -0.0216545 0.00387987 0.00108839
63 2 5.64499 5.79503 5.89725 -0.0484409 -0.0109812 -0.00601832
64 1 5.55953 11.1631 7.15933 0.00571548 -0.000659892 -0.00136503
65 2 4.97827 10.4079 6.97667 -0.00690134 -0.0117902 0.00859252
66 2 12.1405 11.6675 6.11957 0.0243188 0.00809535 -0.00934143
67 1 12.3621 11.7945 8.21478 -0.00359914 0.00242839 0.00269164
68 2 2.94955 12.7104 8.07331 0.0229899 0.00879116 -0.0151361
69 2 12.6207 11.5299 9.15093 -0.0278873 -0.0245561 -0.00231499
70 1 9.81106 4.31941 4.83058 0.00103544 0.00375542 0.00172998
71 2 9.95982 13.7807 3.89009 -0.0135113 0.0145432 -0.0312796
72 2 9.00857 13.7988 5.12188 -0.0102082 0.0116951 0.0111584
73 1 11.5119 8.33747 8.16743 -0.00241693 -0.00664562 0.00451738
74 2 11.3081 7.6562 8.74617 -0.00227773 0.00213658 0.0151322
75 2 12.3437 8.04494 7.65717 0.00197223 0.0038908 0.00723498
76 1 3.11199 5.40022 9.87201 0.00526032 -0.009774 0.0043902
77 2 12.0216 5.64661 9.82724 0.0058287 -0.00792587 0.00538327
78 2 3.59847 6.82758 10.9258 0.00189352 0.00774251 0.0223526
79 1 3.11196 10.2598 10.6769 -0.00481305 -0.00146268 -0.0010282
80 2 3.45454 9.3964 10.3171 0.0339097 0.0109651 -0.0106742
81 2 6.31893 10.6621 8.61485 -0.0215202 0.00083445 0.00345396
82 1 6.09539 5.83443 9.78072 0.00335362 0.00483349 0.00254752
83 2 5.4909 6.53302 9.93715 -0.00685726 -0.00282662 -0.0197676
84 2 6.15311 5.27285 10.606 -0.0172773 0.0151871 -0.0220894
85 1 10.0027 13.6943 2.18725 -0.000646982 0.0107506 0.0021759
86 2 9.63524 12.9314 11.5815 0.0198052 -0.0203001 -0.00385573
87 2 3.1078 4.54173 10.2752 -0.00161552 0.00698385 0.013157
88 1 7.96732 11.7587 5.85856 -0.000907645 -0.00115493 -0.00429894
89 2 7.17866 11.3484 6.14335 0.0134897 0.00798547 0.0078396
90 2 7.69365 12.6895 5.74282 0.0105665 0.0114498 -0.0119312
91 1 4.54753 5.95623 6.11258 -0.00528865 0.00410349 0.00438033
92 2 4.48213 7.57983 6.65256 -0.0184598 -0.032299 0.0015321
93 2 3.87856 4.7001 6.98769 -0.00212901 -0.0361017 -0.0286349
94 1 4.04497 4.17673 7.83285 -0.00483295 0.00555297 0.00103816
95 2 4.26416 4.81891 8.49963 0.0193825 0.00281188 -0.00825979
96 2 4.16381 5.64495 5.27982 0.0105161 0.0360676 -0.018678
ITEM: TIMESTEP
1
ITEM: NUMBER OF ATOMS
96
ITEM: BOX BOUNDS pp pp pp
2.9236100000000000e+00 1.2773600000000000e+01
4.0306300000000004e+00 1.3880599999999999e+01
2.1372399999999998e+00 1.1987200000000000e+01
ITEM: ATOMS id type x y z vx vy vz
1 1 5.64778 4.32752 2.43326 0.00644282 -0.00299838 0.00163075
2 2 5.36846 13.2849 2.60688 0.00291241 -0.00137901 0.0677539
3 2 11.0193 13.5517 11.9508 0.000466657 -0.000151299 0.000439768
4 1 12.515 12.9745 11.6424 0.0046922 0.00155901 -0.00206054
5 2 12.6734 12.107 11.1855 0.0308309 -0.0315343 -0.00331588
6 2 3.19956 12.88 2.61415 -0.00946694 0.0221409 0.0181001
7 1 11.6355 7.16636 3.79251 -0.00110013 0.000580588 0.00556008
8 2 10.6822 6.86949 3.87297 0.0244144 0.00862747 0.0118015
9 2 9.63609 8.46226 7.75023 0.0109315 0.00781167 0.0153945
10 1 8.71647 8.67673 7.91055 -0.00489364 -0.00415224 0.000671637
11 2 8.32252 7.81489 8.0383 0.022517 -0.0152462 0.00720391
12 2 7.50008 9.73625 9.0323 0.00492797 -0.00360936 -0.00010522
13 1 6.25584 9.12632 11.98 0.00344871 0.0118356 -0.00328767
14 2 6.59003 9.79646 11.3245 0.00913144 -0.00150702 -0.0112364
15 2 5.3591 8.77085 11.6741 -0.000717857 0.0145908 -0.00943372
16 1 8.57812 7.46996 11.9557 0.0022004 -0.000507188 -0.000424783
17 2 8.55652 7.03328 3.7791 0.00303666 -0.00079849 -0.00294369
18 2 7.77452 8.03819 2.14953 -0.0142959 -0.00645031 0.0152256
19 1 4.08068 7.50883 11.5079 -0.00585931 -0.00405546 -0.00222886
20 2 3.74519 7.2931 2.5425 -0.0162102 0.00573498 -0.0154078
21 2 12.1498 10.031 11.1904 0.0079773 -0.0142188 -0.00727096
22 1 10.3854 9.63317 11.9854 0.000569096 0.0016897 -0.00151086
23 2 10.274 9.82518 3.11236 0.012659 0.00973051 0.0115435
24 2 9.34614 8.01868 11.7573 0.0212989 0.00466523 -0.0119448
25 1 4.15872 8.53002 6.75934 -0.000552263 -0.00136885 0.00345628
26 2 3.78008 8.73113 5.83849 0.0143089 -0.000970461 -0.0437728
27 2 12.4602 5.26758 4.00976 0.00269656 0.0188716 -0.018693
28 1 8.89484 6.84565 4.70725 0.00215672 -7.07266e-05 -0.00269804
29 2 9.1503 5.86987 4.70445 0.00347947 0.000804679 -0.0173562
30 2 7.51569 6.12601 5.35702 0.01205 0.0254026 0.00573528
31 1 3.34617 9.6921 4.47943 -0.00377415 -0.00636099 -0.00624182
32 2 12.645 10.4623 4.69748 -0.00467692 -0.0028063 0.0103057
33 2 4.20141 10.0816 4.04091 -0.00472699 0.0261165 0.00321305
34 1 8.27721 5.45755 8.11143 0.000792099 -0.0032327 0.000760693
35 2 8.51246 4.52941 7.93187 0.00793999 0.0117626 -0.0159507
36 2 7.74151 5.55635 8.9714 0.0233018 -0.00633015 0.016179
37 1 8.99709 11.5795 10.5096 0.00311573 -0.0018859 0.00160348
38 2 9.41121 12.144 9.81117 -0.00111874 -0.0114394 -0.0343477
39 2 9.99076 10.3384 11.4072 0.00920506 -0.0100759 -0.0181533
40 1 12.1008 12.0834 5.29174 0.00449312 -0.00130009 -0.00323225
41 2 3.03754 13.7125 4.54611 -0.00492535 0.035353 -0.00806954
42 2 11.2318 12.3404 5.1312 0.0154089 0.00920457 0.00374811
43 1 3.373 4.68534 4.08817 -0.00508642 0.0027607 0.000750979
44 2 11.6397 8.15674 3.85214 -0.00859975 -0.00844813 0.000663213
45 2 4.87529 4.79181 2.85149 0.00892468 0.0425783 -0.00354213
46 1 9.71157 12.5619 8.011 -0.00281181 -0.00078518 -0.00302782
47 2 9.20092 12.1694 7.27302 0.0149878 -0.0288343 0.00824914
48 2 10.5767 12.0276 8.0147 0.00130208 0.00728163 -0.0101767
49 1 10.3666 6.14905 9.77431 -0.00448291 -0.000126207 0.00234974
50 2 9.70832 5.76548 9.06999 -0.0155016 0.00247444 -0.0205938
51 2 9.76307 6.35941 10.5172 -0.0148105 0.00784957 -0.025397
52 1 9.71805 9.70321 4.76544 -0.00553004 0.00138153 0.000527607
53 2 9.44825 8.7986 4.97414 0.0155403 -0.0158361 0.00783977
54 2 8.97724 10.2582 5.15476 -0.0186599 0.0108297 -0.0113343
55 1 4.73615 11.3338 2.97514 0.00442899 -0.00729412 -0.00106494
56 2 5.46001 10.6665 3.06195 -0.0302147 0.0146783 0.0313341
57 2 4.15847 10.9332 2.28416 0.0257487 0.0262575 0.0160802
58 1 6.83149 10.374 9.41085 -0.00388699 -0.00816482 -0.00100132
59 2 4.93176 11.8735 7.28907 0.00137028 -0.0207955 0.00189624
60 2 8.12265 11.23 10.1444 -0.0197857 -0.0195648 0.0199432
61 1 7.07883 5.3027 5.74068 0.00609335 0.00301972 -0.00138594
62 2 7.30251 5.37189 6.74395 -0.0224544 0.00313824 -0.00140976
63 2 5.61936 5.78953 5.8951 -0.0527197 -0.0110055 -0.00233599
64 1 5.56235 11.1628 7.15862 0.0055647 -0.000703407 -0.00146238
65 2 4.97476 10.4018 6.98102 -0.00672832 -0.0121955 0.0088582
66 2 12.1521 11.6712 6.11681 0.022052 0.00672727 -0.00141699
67 1 12.3603 11.7958 8.2162 -0.0034366 0.00268384 0.00295011
68 2 2.96053 12.7136 8.06602 0.0207616 0.00359669 -0.0135769
69 2 12.6063 11.5177 9.14828 -0.0294834 -0.024059 -0.00815827
70 1 9.81167 4.32128 4.83138 0.00136652 0.00370831 0.00143153
71 2 9.9527 13.7886 3.8748 -0.0151135 0.0171992 -0.0292406
72 2 9.00227 13.804 5.128 -0.0144066 0.00950364 0.0130237
73 1 11.5108 8.33419 8.16955 -0.00197064 -0.00645687 0.00395959
74 2 11.3067 7.65563 8.75496 -0.00334841 -0.00433614 0.0198571
75 2 12.3435 8.04775 7.66173 -0.00277903 0.00720437 0.0109398
76 1 3.11469 5.39539 9.8742 0.00552692 -0.00953316 0.00434851
77 2 12.0236 5.64294 9.82972 0.00231602 -0.00669122 0.00448968
78 2 3.60043 6.83248 10.9379 0.00548359 0.0112414 0.0250725
79 1 3.10955 10.259 10.6764 -0.00478419 -0.00154591 -0.0010619
80 2 3.4706 9.40284 10.3127 0.0301208 0.0147657 -0.00672799
81 2 6.30785 10.663 8.61644 -0.0224894 0.00271264 0.00303334
82 1 6.09716 5.83675 9.78199 0.00374532 0.0044884 0.00249206
83 2 5.48683 6.53178 9.92824 -0.0095419 -0.00205203 -0.0158648
84 2 6.14373 5.28157 10.5943 -0.020154 0.019067 -0.0238279
85 1 10.0024 13.6997 2.18836 -0.000466096 0.0107479 0.0022513
86 2 9.64436 12.9208 11.5795 0.0166262 -0.0213632 -0.00367933
87 2 3.10716 4.54422 10.2825 -0.000843537 0.00259602 0.0163129
88 1 7.96696 11.7582 5.85636 -0.000516489 -0.000749311 -0.00450227
89 2 7.18415 11.3517 6.14789 0.00813713 0.00499876 0.0104467
90 2 7.699 12.6949 5.73686 0.0108563 0.00972713 -0.0118352
91 1 4.54504 5.9583 6.11476 -0.00469515 0.00416603 0.00431254
92 2 4.47274 7.56422 6.65372 -0.0193499 -0.0291657 0.0032414
93 2 3.87771 4.68207 6.97334 -0.00114961 -0.0358699 -0.0281921
94 1 4.04255 4.17941 7.83331 -0.00484498 0.00513751 0.000795607
95 2 4.27388 4.82103 8.49661 0.0193428 0.00586342 -0.00417359
96 2 4.16797 5.66274 5.26953 0.00557204 0.0351889 -0.0224223
ITEM: TIMESTEP
2
ITEM: NUMBER OF ATOMS
96
ITEM: BOX BOUNDS pp pp pp
2.9236100000000000e+00 1.2773600000000000e+01
4.0306300000000004e+00 1.3880599999999999e+01
2.1372399999999998e+00 1.1987200000000000e+01
ITEM: ATOMS id type x y z vx vy vz
1 1 5.65092 4.32607 2.4341 0.00608652 -0.00282283 0.00177739
2 2 5.37042 13.2833 2.64053 0.00498937 -0.00397447 0.066777
3 2 11.0188 13.5522 11.9513 -0.00253254 0.0023357 0.00160225
4 1 12.5175 12.9752 11.6413 0.00508448 0.00121645 -0.00219786
5 2 12.6885 12.0919 11.1843 0.029405 -0.0279414 -0.00102881
6 2 3.19444 12.8913 2.62279 -0.0111425 0.0230774 0.0160712
7 1 11.6349 7.16666 3.79529 -0.001251 0.000603521 0.00554877
8 2 10.696 6.87506 3.87894 0.0298254 0.0131736 0.0121248
9 2 9.6422 8.46645 7.75795 0.0130969 0.00914563 0.0155602
10 1 8.71397 8.67466 7.9109 -0.00509027 -0.00416024 0.000719472
11 2 8.33369 7.80695 8.04186 0.0220453 -0.0164142 0.00705632
12 2 7.50216 9.73477 9.03235 0.00319987 -0.00221272 0.000162761
13 1 6.25756 9.13228 11.9783 0.00342215 0.011959 -0.00331095
14 2 6.59349 9.79456 11.3191 0.00478778 -0.00595095 -0.0106954
15 2 5.36019 8.77865 11.6694 0.00525011 0.0166494 -0.00929108
16 1 8.57919 7.46963 11.9555 0.00208786 -0.000758424 -0.000400043
17 2 8.55825 7.03304 3.77728 0.00381321 -2.51242e-05 -0.00443676
18 2 7.76757 8.03529 2.1569 -0.0129231 -0.00528848 0.0141482
19 1 4.07769 7.50673 11.5068 -0.00604427 -0.00425825 -0.00234021
20 2 3.73704 7.29631 2.53458 -0.0164789 0.00712853 -0.0156403
21 2 12.1543 10.0233 11.1861 0.0097042 -0.0166863 -0.0094157
22 1 10.3858 9.634 11.9846 0.000713907 0.00161501 -0.0016283
23 2 10.2798 9.83041 3.11731 0.0105123 0.011153 0.00782257
24 2 9.35692 8.02209 11.7516 0.0209069 0.00857557 -0.0107307
25 1 4.15844 8.52925 6.761 -0.000613892 -0.0017116 0.00308764
26 2 3.78735 8.73136 5.81731 0.0151732 0.0017589 -0.0397362
27 2 12.4612 5.27719 4.00043 0.00147644 0.0194587 -0.0185651
28 1 8.89591 6.84564 4.70588 0.00209066 3.67313e-05 -0.0027724
29 2 9.1527 5.8698 4.69585 0.00623235 -0.001222 -0.016889
30 2 7.52166 6.13883 5.35962 0.0115609 0.0252402 0.00497785
31 1 3.34438 9.6889 4.47626 -0.00340014 -0.00641539 -0.00642085
32 2 12.6425 10.4612 4.7027 -0.00511686 -0.00202043 0.0105925
33 2 4.19707 10.0942 4.04346 -0.0127036 0.0240119 0.00711519
34 1 8.27761 5.456 8.11185 0.000837047 -0.00296208 0.000930637
35 2 8.51635 4.53506 7.92493 0.00768099 0.0104752 -0.0118204
36 2 7.75309 5.55224 8.97822 0.0229755 -0.0101618 0.0110844
37 1 8.99867 11.5786 10.5104 0.00315813 -0.00184298 0.00163357
38 2 9.4101 12.1378 9.79344 -0.00369841 -0.0138998 -0.0360473
39 2 9.99522 10.3331 11.3992 0.00853058 -0.0107506 -0.01375
40 1 12.1032 12.0828 5.28999 0.00511164 -0.00121437 -0.00375757
41 2 3.03519 13.7312 4.54167 -0.00488447 0.0383592 -0.00914484
42 2 11.2375 12.3454 5.13343 0.0073585 0.0107613 0.00521518
43 1 3.37045 4.68666 4.08858 -0.00506966 0.00261515 0.000835936
44 2 11.635 8.15093 3.8525 -0.0100364 -0.0142136 0.000824354
45 2 4.88088 4.81316 2.84916 0.0139505 0.0421495 -0.00606567
46 1 9.71022 12.5614 8.00948 -0.00259966 -0.00103966 -0.00304044
47 2 9.2083 12.1552 7.27737 0.0141148 -0.0281242 0.00892274
48 2 10.5768 12.0323 8.00978 -0.00080109 0.0113039 -0.00931879
49 1 10.3642 6.14897 9.77542 -0.00515132 -0.000184542 0.00205035
50 2 9.70216 5.76743 9.0608 -0.00876221 0.00546518 -0.0159068
51 2 9.75633 6.3633 10.5044 -0.0123787 0.00785759 -0.0253857
52 1 9.71522 9.70394 4.76575 -0.00579578 0.0015259 0.000712918
53 2 9.45611 8.79068 4.97789 0.0158421 -0.0152326 0.00712454
54 2 8.96903 10.2631 5.14853 -0.0140057 0.00854409 -0.0136473
55 1 4.73839 11.3301 2.97462 0.00452027 -0.00741048 -0.000979932
56 2 5.44514 10.6744 3.07698 -0.0280116 0.0159479 0.0287467
57 2 4.17145 10.9467 2.29217 0.0253209 0.0268596 0.0148467
58 1 6.8296 10.3698 9.41037 -0.00368395 -0.00842332 -0.000942557
59 2 4.93227 11.8634 7.29027 0.000471621 -0.0191446 0.00295282
60 2 8.11319 11.2206 10.1542 -0.0173691 -0.0176279 0.0196316
61 1 7.08185 5.3042 5.74005 0.00600223 0.00303979 -0.00113999
62 2 7.29107 5.37327 6.74253 -0.0233145 0.00236077 -0.0044739
63 2 5.59227 5.78402 5.89491 -0.0542743 -0.0110278 0.00178143
64 1 5.56509 11.1624 7.15787 0.00539122 -0.000843948 -0.00156793
65 2 4.97154 10.3957 6.98553 -0.00576943 -0.0120564 0.00921525
66 2 12.1626 11.6742 6.11815 0.0196456 0.00538287 0.00665185
67 1 12.3587 11.7972 8.21773 -0.00327828 0.00296325 0.00312985
68 2 2.97031 12.714 8.05973 0.0182461 -0.00240718 -0.0112065
69 2 12.5912 11.5058 9.14277 -0.0305387 -0.0230297 -0.0135365
70 1 9.81243 4.32312 4.83201 0.00162997 0.0036154 0.00108375
71 2 9.94471 13.7979 3.86085 -0.0169974 0.0200988 -0.026059
72 2 8.99416 13.8083 5.1349 -0.0173075 0.0078445 0.0142224
73 1 11.5099 8.33101 8.17139 -0.00157274 -0.00627571 0.00344851
74 2 11.3048 7.65186 8.76603 -0.0040745 -0.0103528 0.0240357
75 2 12.3409 8.05214 7.66811 -0.00707272 0.0101663 0.0144196
76 1 3.11752 5.39069 9.87636 0.0057552 -0.00927718 0.00428363
77 2 12.0239 5.63992 9.83173 -0.000843663 -0.00541934 0.00352853
78 2 3.60395 6.83882 10.9509 0.00805675 0.0133474 0.0261048
79 1 3.10718 10.2583 10.6758 -0.00470935 -0.00159143 -0.00113893
80 2 3.48466 9.41117 10.3104 0.0260206 0.0183852 -0.00267712
81 2 6.29644 10.6648 8.61788 -0.0228032 0.00416596 0.00289503
82 1 6.09914 5.83892 9.78321 0.00413067 0.00422674 0.00231579
83 2 5.48136 6.53097 9.92129 -0.0123449 -0.0011847 -0.0120478
84 2 6.13296 5.29192 10.5822 -0.0228038 0.0215521 -0.0236357
85 1 10.0022 13.705 2.1895 -0.000283923 0.0106285 0.0022707
86 2 9.65187 12.91 11.5778 0.0134022 -0.0211791 -0.00275887
87 2 3.10696 4.54433 10.2915 5.66358e-05 -0.00229525 0.0196303
88 1 7.9668 11.758 5.85406 -9.72236e-05 -0.000314819 -0.00472947
89 2 7.1868 11.3534 6.1538 0.00238489 0.00203517 0.0131849
90 2 7.70451 12.6992 5.73098 0.0111333 0.0073954 -0.0115933
91 1 4.54283 5.9604 6.11689 -0.00416685 0.00418059 0.00418569
92 2 4.46278 7.55066 6.6558 -0.0206584 -0.024212 0.00519685
93 2 3.87741 4.66423 6.9595 6.36519e-05 -0.0353807 -0.0266276
94 1 4.04013 4.18187 7.83365 -0.00486489 0.00469084 0.000537841
95 2 4.2835 4.82477 8.49546 0.0189545 0.00908138 -0.00091427
96 2 4.16938 5.68014 5.2574 -0.000331213 0.0345383 -0.0258615
ITEM: TIMESTEP
3
ITEM: NUMBER OF ATOMS
96
ITEM: BOX BOUNDS pp pp pp
2.9236100000000000e+00 1.2773600000000000e+01
4.0306300000000004e+00 1.3880599999999999e+01
2.1372399999999998e+00 1.1987200000000000e+01
ITEM: ATOMS id type x y z vx vy vz
1 1 5.65387 4.3247 2.43503 0.00566285 -0.00267854 0.00197944
2 2 5.37345 13.2809 2.67365 0.00717984 -0.0049056 0.0655399
3 2 11.0168 13.5541 11.9525 -0.00512003 0.00511916 0.00289505
4 1 12.5201 12.9757 11.6402 0.00548601 0.000768812 -0.00235547
5 2 12.7028 12.0791 11.1845 0.0276706 -0.0224754 0.00232656
6 2 3.18842 12.9031 2.63022 -0.0130368 0.0238923 0.0133723
7 1 11.6343 7.16697 3.79806 -0.00125469 0.000606056 0.00551878
8 2 10.712 6.88266 3.8851 0.0327197 0.0166338 0.0125676
9 2 9.64919 8.47141 7.76579 0.0143353 0.0108587 0.0158289
10 1 8.71138 8.67257 7.91127 -0.00521789 -0.00420224 0.000763228
11 2 8.34457 7.79847 8.04536 0.021408 -0.0173883 0.0068958
12 2 7.50328 9.73403 9.03246 0.0011781 -0.00070433 5.55688e-05
13 1 6.25926 9.13828 11.9766 0.00339139 0.01204 -0.00333456
14 2 6.59482 9.79051 11.3138 0.000693193 -0.00997511 -0.0103106
15 2 5.36435 8.7875 11.6648 0.0112604 0.0186395 -0.00898521
16 1 8.58021 7.4692 11.9553 0.00201393 -0.000926556 -0.000389662
17 2 8.56034 7.03326 3.77466 0.00453413 0.000992992 -0.00606389
18 2 7.7616 8.0329 2.16367 -0.0104776 -0.00439482 0.0128626
19 1 4.07463 7.50457 11.5056 -0.00613482 -0.00434133 -0.00239859
20 2 3.72871 7.30023 2.52686 -0.016939 0.00854222 -0.0146583
21 2 12.1595 10.0143 11.1809 0.0107124 -0.0194669 -0.0110705
22 1 10.3862 9.63479 11.9838 0.000862468 0.00150958 -0.00168997
23 2 10.2845 9.83633 3.12019 0.00826259 0.0124803 0.00338192
24 2 9.36705 8.02726 11.7466 0.0187422 0.0117184 -0.00901186
25 1 4.15811 8.5283 6.76243 -0.000715454 -0.00208661 0.00255443
26 2 3.79526 8.73289 5.79875 0.0167824 0.00420151 -0.0334491
27 2 12.4616 5.28703 3.99119 0.000458143 0.0197565 -0.0183275
28 1 8.89693 6.84568 4.70448 0.00200709 0.00013114 -0.00284506
29 2 9.15653 5.86865 4.68756 0.00914082 -0.00344718 -0.0161645
30 2 7.52725 6.15125 5.36199 0.0105749 0.0238131 0.00480855
31 1 3.34277 9.68568 4.47301 -0.00304612 -0.00642621 -0.00656634
32 2 12.6398 10.4603 4.70807 -0.00564222 -0.00179554 0.0109716
33 2 4.18871 10.1056 4.04803 -0.0204747 0.0212082 0.0111043
34 1 8.27804 5.45459 8.11236 0.000890283 -0.002645 0.00110223
35 2 8.52014 4.53989 7.92005 0.00754117 0.00853673 -0.00774372
36 2 7.76449 5.54619 8.98249 0.0225044 -0.0140415 0.0060936
37 1 9.00025 11.5777 10.5112 0.00316025 -0.00178429 0.00157323
38 2 9.40751 12.1301 9.77512 -0.00692999 -0.0171004 -0.0367256
39 2 9.99929 10.3276 11.3935 0.00764719 -0.0110171 -0.00933727
40 1 12.1059 12.0822 5.28798 0.00573463 -0.00115918 -0.00425077
41 2 3.03265 13.7508 4.53697 -0.00578106 0.0392892 -0.00902756
42 2 11.2391 12.3512 5.13641 -0.00061979 0.0123219 0.00683523
43 1 3.36793 4.68795 4.08901 -0.0049907 0.00262485 0.000836677
44 2 11.6297 8.14253 3.85296 -0.0111952 -0.0185535 0.0010477
45 2 4.88924 4.83396 2.84542 0.0197364 0.040489 -0.00904153
46 1 9.70897 12.5608 8.00796 -0.00238362 -0.00129078 -0.00303653
47 2 9.21503 12.1413 7.28194 0.012451 -0.0273544 0.00912647
48 2 10.5759 12.0389 8.00538 -0.00227945 0.01522 -0.00811939
49 1 10.3615 6.14886 9.77636 -0.0058085 -0.000269119 0.00166154
50 2 9.69956 5.77095 9.05408 -0.00149266 0.00857117 -0.0108942
51 2 9.75069 6.36727 10.4918 -0.0104629 0.00816387 -0.0243191
52 1 9.71225 9.70474 4.76615 -0.00606175 0.00163853 0.000889024
53 2 9.46409 8.78337 4.98126 0.0159927 -0.0134921 0.00634699
54 2 8.96323 10.2667 5.14112 -0.00917508 0.0056687 -0.0159333
55 1 4.74067 11.3264 2.97416 0.00458543 -0.0072571 -0.000757836
56 2 5.432 10.6824 3.0907 -0.0233526 0.0150727 0.0261607
57 2 4.18379 10.96 2.29901 0.0232437 0.0259837 0.0114212
58 1 6.82781 10.3656 9.40991 -0.00349225 -0.00865199 -0.000886288
59 2 4.93223 11.8543 7.29203 -0.000778512 -0.0167338 0.00416015
60 2 8.10528 11.2124 10.164 -0.0137433 -0.0151507 0.0196294
61 1 7.08483 5.30574 5.73954 0.00592445 0.00314477 -0.000920434
62 2 7.27919 5.37425 6.73947 -0.0241357 0.00157459 -0.00780555
63 2 5.56508 5.7785 5.89688 -0.0532525 -0.0110688 0.0061857
64 1 5.56774 11.1619 7.15706 0.00519602 -0.0010704 -0.00167813
65 2 4.96899 10.3898 6.99023 -0.00408944 -0.0114254 0.00963139
66 2 12.1718 11.6766 6.12347 0.0170893 0.00443648 0.0141087
67 1 12.3571 11.7987 8.21933 -0.00313881 0.00324674 0.00321205
68 2 2.97878 12.7112 8.05482 0.0156299 -0.00873085 -0.00817745
69 2 12.5758 11.4946 9.13475 -0.0309776 -0.0216751 -0.0180177
70 1 9.8133 4.3249 4.83246 0.00180644 0.00348081 0.0007113
71 2 9.93571 13.8087 3.84875 -0.0190786 0.0230987 -0.0219559
72 2 8.98497 13.8119 5.14222 -0.0186346 0.00685689 0.0146405
73 1 11.5092 8.32792 8.17299 -0.00125695 -0.00612533 0.00302537
74 2 11.3026 7.64527 8.77899 -0.00431327 -0.0154197 0.0272269
75 2 12.3364 8.05791 7.67615 -0.0105751 0.0126403 0.0174729
76 1 3.12045 5.38611 9.87848 0.00592815 -0.00903269 0.00420651
77 2 12.0228 5.63752 9.83325 -0.00328012 -0.00427959 0.00255098
78 2 3.60848 6.84583 10.964 0.00940995 0.0137815 0.0252694
79 1 3.10485 10.2575 10.6752 -0.00459149 -0.00158421 -0.0012535
80 2 3.49662 9.42122 10.31 0.021854 0.0215122 0.00128004
81 2 6.28505 10.6672 8.61934 -0.0224219 0.00516987 0.00309091
82 1 6.1013 5.84098 9.78431 0.00449189 0.00407244 0.00202041
83 2 5.47448 6.53059 9.9162 -0.0150438 -0.000412029 -0.00846002
84 2 6.12092 5.30313 10.5707 -0.0251909 0.022464 -0.0214078
85 1 10.0021 13.7103 2.19063 -0.000113907 0.0103966 0.00223369
86 2 9.65776 12.8997 11.5768 0.0101938 -0.0197412 -0.00113074
87 2 3.10722 4.54193 10.3022 0.00100784 -0.00714175 0.0228637
88 1 7.96686 11.7579 5.85163 0.000314444 0.000120973 -0.00496463
89 2 7.18654 11.3537 6.16108 -0.0031698 -0.000577451 0.0158283
90 2 7.71014 12.7023 5.72527 0.0112948 0.00453032 -0.0111881
91 1 4.54087 5.96248 6.11895 -0.00374498 0.004143 0.00398585
92 2 4.45208 7.54001 6.65891 -0.0222428 -0.0178025 0.00729305
93 2 3.87778 4.64669 6.94672 0.00154373 -0.0346198 -0.023969
94 1 4.03769 4.1841 7.83385 -0.00488526 0.00424087 0.000280812
95 2 4.29283 4.83012 8.49569 0.018104 0.0121149 0.00127798
96 2 4.16764 5.69728 5.24367 -0.0068066 0.0342049 -0.0285842
ITEM: TIMESTEP
4
ITEM: NUMBER OF ATOMS
96
ITEM: BOX BOUNDS pp pp pp
2.9236100000000000e+00 1.2773600000000000e+01
4.0306300000000004e+00 1.3880599999999999e+01
2.1372399999999998e+00 1.1987200000000000e+01
ITEM: ATOMS id type x y z vx vy vz
1 1 5.65659 4.32339 2.43608 0.00520114 -0.00258191 0.00222632
2 2 5.3776 13.2784 2.70607 0.00944738 -0.00410305 0.0639472
3 2 11.0136 13.5574 11.9542 -0.00723037 0.00811856 0.00426278
4 1 12.523 12.9759 11.639 0.00588477 0.000249701 -0.00253023
5 2 12.7162 12.0694 11.1866 0.0256884 -0.0156112 0.00646408
6 2 3.18141 12.9152 2.63616 -0.0149728 0.0245591 0.0102432
7 1 11.6336 7.16727 3.80081 -0.00108558 0.00057611 0.00546553
8 2 10.7287 6.89169 3.89151 0.0326333 0.0187575 0.0131854
9 2 9.65654 8.47731 7.77378 0.0145299 0.0129217 0.0162075
10 1 8.70875 8.67046 7.91166 -0.00527247 -0.00428403 0.000804137
11 2 8.3551 7.78957 8.04876 0.0206831 -0.0180548 0.00669573
12 2 7.50334 9.73407 9.03241 -0.00100613 0.000804456 -0.000450746
13 1 6.26095 9.14432 11.975 0.00337078 0.0120799 -0.00333709
14 2 6.59418 9.78459 11.3088 -0.00291292 -0.0132933 -0.0103096
15 2 5.37145 8.79729 11.6604 0.0168199 0.020335 -0.00861097
16 1 8.5812 7.46871 11.9551 0.00198021 -0.0010123 -0.000392774
17 2 8.56278 7.03403 3.77121 0.00525453 0.00217607 -0.00770042
18 2 7.7571 8.03089 2.16976 -0.00710981 -0.00377748 0.0113908
19 1 4.07156 7.50239 11.5044 -0.00612479 -0.00429635 -0.00239632
20 2 3.7201 7.30486 2.51992 -0.0176045 0.00997822 -0.0125125
21 2 12.165 10.0038 11.1751 0.0109192 -0.0225002 -0.0121615
22 1 10.3866 9.63551 11.9829 0.00101717 0.00136754 -0.00170204
23 2 10.288 9.84289 3.1207 0.005943 0.0136963 -0.00148159
24 2 9.37566 8.0338 11.7425 0.0149645 0.0140564 -0.00681043
25 1 4.15772 8.52716 6.76355 -0.00084992 -0.00246374 0.00189365
26 2 3.80413 8.73556 5.78386 0.0189059 0.00635672 -0.0253488
27 2 12.4617 5.29695 3.9821 -0.00028132 0.0197265 -0.01799
28 1 8.89791 6.84577 4.70304 0.00190406 0.000200856 -0.00291968
29 2 9.16184 5.86636 4.67969 0.0121074 -0.00562604 -0.015218
30 2 7.53223 6.16265 5.36442 0.00923118 0.021284 0.00510948
31 1 3.34133 9.68247 4.46969 -0.00274563 -0.00640408 -0.00666342
32 2 12.6369 10.4594 4.71367 -0.00633278 -0.00211164 0.0114663
33 2 4.1766 10.1154 4.05457 -0.0273478 0.0179731 0.0148061
34 1 8.2785 5.45335 8.11295 0.000952488 -0.00229639 0.0012596
35 2 8.52389 4.5436 7.91719 0.0075244 0.00608533 -0.00378365
36 2 7.7756 5.5382 8.98431 0.0218076 -0.0178719 0.00143893
37 1 9.00183 11.5768 10.512 0.00312582 -0.0017111 0.00143051
38 2 9.40317 12.1207 9.75672 -0.0106059 -0.0208463 -0.0364391
39 2 10.0029 10.3221 11.3899 0.00651538 -0.0107783 -0.00512778
40 1 12.1089 12.0816 5.28574 0.00631325 -0.00114129 -0.00467575
41 2 3.02941 13.7704 4.53264 -0.00767278 0.0380109 -0.00761769
42 2 11.2369 12.3577 5.14026 -0.00772653 0.01367 0.00869859
43 1 3.36546 4.68929 4.08942 -0.00485172 0.00280084 0.00074934
44 2 11.6238 8.13238 3.85355 -0.0120011 -0.0210202 0.00133612
45 2 4.90062 4.85365 2.84012 0.0258631 0.0377695 -0.012209
46 1 9.70783 12.5601 8.00645 -0.00218184 -0.00152638 -0.0030161
47 2 9.22075 12.1278 7.2865 0.010078 -0.026574 0.00888737
48 2 10.5745 12.0475 8.00166 -0.00299657 0.0188801 -0.00664573
49 1 10.3584 6.1487 9.77708 -0.00641561 -0.000364944 0.00120964
50 2 9.70067 5.77601 9.0499 0.00586068 0.0115367 -0.00598066
51 2 9.74587 6.37146 10.4801 -0.00918583 0.00879336 -0.0221475
52 1 9.70916 9.70558 4.76664 -0.0063044 0.00171299 0.00104511
53 2 9.4721 8.77719 4.98424 0.015938 -0.0107965 0.00553689
54 2 8.95986 10.2688 5.13259 -0.00450764 0.00247277 -0.018005
55 1 4.74297 11.3228 2.97386 0.00462817 -0.00685174 -0.00041667
56 2 5.42178 10.6895 3.10314 -0.0165943 0.0121451 0.0237032
57 2 4.19469 10.9726 2.30359 0.0197031 0.0237609 0.00598228
58 1 6.82611 10.3612 9.40948 -0.00332183 -0.00884378 -0.000834002
59 2 4.93149 11.8467 7.29443 -0.00226045 -0.013744 0.00547662
60 2 8.09945 11.2055 10.1739 -0.0091751 -0.012279 0.0198899
61 1 7.08778 5.30734 5.73913 0.00587102 0.00331683 -0.000745862
62 2 7.26693 5.37484 6.73472 -0.024812 0.000804116 -0.0110229
63 2 5.53902 5.77296 5.9011 -0.0499379 -0.0111784 0.0106711
64 1 5.57029 11.1613 7.15619 0.00497918 -0.0013651 -0.00178834
65 2 4.96745 10.3843 6.99516 -0.0017933 -0.0103854 0.0100688
66 2 12.1796 11.6787 6.13226 0.014373 0.00419525 0.0202849
67 1 12.3555 11.8004 8.22094 -0.00303245 0.00351514 0.00318247
68 2 2.98594 12.7053 8.05156 0.0131169 -0.0148874 -0.00465996
69 2 12.5602 11.4842 9.12475 -0.0307599 -0.0202131 -0.0212214
70 1 9.81423 4.3266 4.83272 0.00188676 0.0033133 0.00033756
71 2 9.92563 13.821 3.83889 -0.0212575 0.0260552 -0.0171933
72 2 8.97553 13.8152 5.14954 -0.0183203 0.00657721 0.014263
73 1 11.5087 8.32489 8.17441 -0.00105136 -0.00602253 0.00272314
74 2 11.3004 7.63644 8.79325 -0.00397316 -0.0191704 0.0290984
75 2 12.3303 8.06478 7.68558 -0.0129901 0.01452 0.0199228
76 1 3.12345 5.38165 9.88057 0.00603264 -0.00882427 0.00412999
77 2 12.0206 5.63564 9.83428 -0.00469488 -0.00342452 0.00160745
78 2 3.61336 6.8526 10.9761 0.00943294 0.0123722 0.0224908
79 1 3.10258 10.2567 10.6746 -0.0044369 -0.0015115 -0.00139649
80 2 3.50651 9.43268 10.3117 0.0178721 0.023864 0.00495502
81 2 6.27402 10.67 8.62097 -0.0213448 0.00572098 0.0036446