ITEM: TIMESTEP
0
ITEM: NUMBER OF ATOMS
96
ITEM: BOX BOUNDS pp pp pp
2.9236100000000000e+00 1.2773600000000000e+01
4.0306300000000004e+00 1.3880599999999999e+01
2.1372399999999998e+00 1.1987200000000000e+01
ITEM: ATOMS id type x y z vx vy vz
1 1 5.62087 4.34041 2.42601 -0.00630919 0.00244303 -0.00257204
2 2 5.38935 13.2256 2.32404 0.0138959 -0.0197324 -0.0714794
3 2 10.9728 13.5698 11.9549 -0.016093 0.00326985 -0.00116961
4 1 12.5013 12.9696 11.6497 -0.00238608 0.000156425 0.00173837
5 2 12.5412 12.1803 11.1698 -0.0337623 -0.0104919 -0.0204147
6 2 3.23292 12.8059 2.55028 0.0112241 -0.0160109 -0.00797345
7 1 11.6351 7.16354 3.77034 -0.000798039 -0.00135931 -0.00559808
8 2 10.7092 6.92056 3.83068 0.0279352 0.0287947 -0.00874821
9 2 9.63946 8.43797 7.69188 0.0081758 -0.00560992 -0.0121453
10 1 8.73116 8.6937 7.90871 0.00248938 0.0042332 -0.000298309
11 2 8.2429 7.86211 8.00483 -0.0124689 0.0109524 -0.0102666
12 2 7.47683 9.75691 9.04815 -0.0014652 0.00245995 0.00821358
13 1 6.24352 9.08234 2.14485 -0.00213424 -0.010082 0.0047444
14 2 6.49923 9.74756 11.3595 -0.0291733 -0.0171689 -0.000579258
15 2 5.40739 8.72643 11.6983 0.0085733 -0.0142167 -0.000522702
16 1 8.56691 7.4663 11.9581 -0.00315871 -0.0018736 0.000731532
17 2 8.56291 7.03344 3.77886 0.00734721 -0.00343093 -0.00153572
18 2 7.80637 8.08321 11.9313 -0.00373002 0.0122979 -0.017003
19 1 4.09878 7.51873 11.5137 0.00325728 0.000962979 0.000581821
20 2 3.80772 7.28789 2.55898 0.013572 0.00110943 -0.0087213
21 2 12.1578 10.0694 11.1793 0.00927507 0.0102296 -0.00985155
22 1 10.3853 9.62596 2.13724 0.000389676 -0.00183694 -0.000785837
23 2 10.1977 9.80588 3.06568 -0.0227472 -0.00301314 0.000869084
24 2 9.31886 8.07335 11.8089 0.0107105 0.0262439 0.0135898
25 1 4.16204 8.53389 6.74881 0.00137783 0.00145908 -0.000420154
26 2 3.69129 8.78517 5.96327 -0.0354697 0.0238004 0.00418694
27 2 12.4316 5.20882 4.0803 -0.00928692 -0.0102262 0.015155
28 1 8.88552 6.84704 4.71678 -0.00255687 0.000372639 0.00213801
29 2 9.16753 5.86225 4.7663 0.00962919 0.00322567 0.010505
30 2 7.48458 6.07069 5.29724 -0.00139275 0.000100122 -0.0248792
31 1 3.3643 9.71403 4.50211 0.00411997 0.00418525 0.00559488
32 2 12.6556 10.5082 4.65965 0.00102797 0.0218689 -0.00844965
33 2 4.15041 9.98844 4.05457 -0.0112189 -0.0123507 -7.75025e-05
34 1 8.27467 5.47154 8.10959 -0.000399059 0.00304152 -0.000572201
35 2 8.47608 4.49624 8.0524 -0.00842417 0.000264462 0.0395477
36 2 7.63764 5.53614 8.84801 -0.0322115 -0.0104265 -0.0367663
37 1 8.98704 11.5873 10.5072 -0.00172556 0.00210735 0.000697064
38 2 9.41429 12.19 9.8849 0.00662311 0.0161461 0.000644799
39 2 9.94715 10.3631 11.5217 -0.0126228 0.00367792 0.0286883
40 1 12.0873 12.0897 5.29929 -0.0038856 0.00146141 0.00175474
41 2 3.08388 13.6703 4.53176 0.0189808 0.0125751 -0.0147789
42 2 11.119 12.3112 5.14149 -0.0184404 -0.00923702 0.00887842
43 1 3.39105 4.66796 4.08899 0.00359717 -0.00592355 0.00122722
44 2 11.6478 8.09927 3.85133 -0.00297179 -0.0232515 0.000810066
45 2 4.8563 4.66753 2.86481 -0.0115001 -0.0158092 0.0100485
46 1 9.72402 12.5626 8.02272 0.00267994 0.000318434 0.00297996
47 2 9.16045 12.285 7.26485 -0.00117608 0.0252841 0.00398427
48 2 10.5358 12.0453 8.04977 -0.0132429 0.00820631 0.00371441
49 1 10.3779 6.15155 9.76613 0.00254601 0.00189997 -0.000560187
50 2 9.80448 5.76664 9.16565 0.0124812 -0.00824397 0.0102832
51 2 9.86347 6.32048 10.5907 0.0315795 -0.0119254 0.0107801
52 1 9.7382 9.69985 4.76552 0.00517269 -0.000734938 0.000282526
53 2 9.39366 8.82085 4.93437 -0.0111412 -0.00946434 -0.0120082
54 2 9.08501 10.2288 5.18327 0.0239057 0.00737436 0.00951297
55 1 4.72119 11.3514 2.97446 -0.00286029 0.000788496 -0.002227
56 2 5.51468 10.7039 2.91414 -0.0118454 0.0394304 -0.0364027
57 2 4.11033 10.897 2.28182 0.00566594 0.0142895 0.0218474
58 1 6.84964 10.4022 9.41561 0.00486068 0.00610288 0.00125357
59 2 4.93075 11.9411 7.28971 0.00313491 0.00619167 0.000717197
60 2 8.17547 11.3074 10.0444 -0.00248135 0.0139021 -0.03128
61 1 7.05432 5.28683 5.74968 -0.00566049 -0.00529373 0.00282068
62 2 7.38461 5.35071 6.73135 0.019759 -0.00607095 -0.00382408
63 2 5.69149 5.83178 5.94591 -0.0289424 0.00887491 0.0177
64 1 5.53853 11.1678 7.16325 -0.00609727 0.00246542 0.000925972
65 2 4.98081 10.4288 6.94635 -0.0090361 -0.00129342 -0.00909907
66 2 12.0367 11.6448 6.19895 -0.0310746 0.00246268 0.0196113
67 1 12.3759 11.7871 8.20941 0.00391612 -0.0023819 -0.000546092
68 2 12.7102 12.6716 8.11279 -0.0233466 0.0019103 0.000368634
69 2 12.6906 11.5939 9.10406 0.012745 0.00488389 -0.0196921
70 1 9.81129 4.30678 4.82402 0.000578416 -0.0034149 -0.00114224
71 2 9.99976 13.7467 3.97887 0.0118835 -0.00883756 0.00972842
72 2 8.98507 13.7289 5.11272 -0.0167786 -0.0246035 0.00381933
73 1 11.5246 8.36144 8.14657 0.00396693 0.00642243 -0.00640112
74 2 11.3046 7.59596 8.73411 -0.00169876 -0.0193842 -0.000942936
75 2 12.2923 8.07089 7.66702 -0.017718 0.0156862 0.00644732
76 1 3.09685 5.43533 9.85723 -0.00356945 0.00964711 -0.00383798
77 2 11.9743 5.67784 9.8024 -0.0133686 0.00609717 -0.00746741
78 2 3.64692 6.8602 10.9109 0.0266039 0.0231703 0.0135781
79 1 3.12777 10.2639 10.6814 0.00399164 0.0011063 0.00180568
80 2 3.31498 9.38706 10.3848 -0.0378554 -0.00248882 0.0214205
81 2 6.36873 10.6913 8.59557 0.00620644 0.0180294 -0.00611639
82 1 6.08732 5.81289 9.77433 -0.00177105 -0.00706155 -0.000650444
83 2 5.49811 6.53861 10.0447 0.00220737 -0.00361983 0.0367481
84 2 6.17719 5.28788 10.6225 -0.00170813 0.0216104 -0.0145069
85 1 10.0057 13.6598 2.182 0.000331757 -0.00854365 -0.000628619
86 2 9.53572 12.9614 11.5788 -0.0326924 -0.00482959 -0.00673743
87 2 3.1143 4.50866 10.2508 -0.000283596 0.000536549 -0.00536983
88 1 7.97227 11.7652 5.87261 0.00101301 0.00188589 0.00410632
89 2 7.11349 11.303 6.1327 -0.00948276 -0.0113881 -0.00245664
90 2 7.65816 12.6528 5.78105 -0.0103545 -0.00419298 0.00901245
91 1 4.57271 5.94359 6.09728 0.0085195 -0.00298716 -0.00432832
92 2 4.55175 7.66952 6.65188 0.023139 0.00946094 -0.00393094
93 2 3.8951 4.81618 7.06737 0.00769987 0.0255839 0.014968
94 1 4.06226 4.15544 7.82776 0.00515774 -0.00553045 -0.00136846
95 2 4.19812 4.81536 8.58002 -0.0193642 -0.00985096 0.0323709
96 2 4.11021 5.51064 5.31143 -0.0100027 -0.0381711 0.0045011
ITEM: TIMESTEP
1
ITEM: NUMBER OF ATOMS
96
ITEM: BOX BOUNDS pp pp pp
2.9236100000000000e+00 1.2773600000000000e+01
4.0306300000000004e+00 1.3880599999999999e+01
2.1372399999999998e+00 1.1987200000000000e+01
ITEM: ATOMS id type x y z vx vy vz
1 1 5.61776 4.34151 2.42465 -0.0061574 0.0019377 -0.0028727
2 2 5.39683 13.2167 2.28857 0.0159187 -0.0148353 -0.0699663
3 2 10.9651 13.571 11.9539 -0.0141072 0.00145342 -0.00280107
4 1 12.5002 12.9698 11.6506 -0.00212581 0.000466222 0.00166287
5 2 12.5243 12.1732 11.1586 -0.0338039 -0.0168416 -0.0236975
6 2 3.23877 12.798 2.54681 0.011986 -0.0158328 -0.00624538
7 1 11.6347 7.16278 3.76753 -0.000577138 -0.0017131 -0.00566084
8 2 10.7231 6.93529 3.82647 0.0259916 0.0294094 -0.00807577
9 2 9.64349 8.43522 7.68612 0.0075001 -0.00530808 -0.0107713
10 1 8.73235 8.69581 7.90856 0.00229782 0.00418298 -0.000289152
11 2 8.23739 7.86767 7.99954 -0.00948568 0.0113101 -0.0108928
12 2 7.47659 9.75776 9.05244 0.000513288 0.000877794 0.00882263
13 1 6.24254 9.07735 2.14731 -0.00177197 -0.00988298 0.0051072
14 2 6.48473 9.73928 11.3582 -0.0285117 -0.0156582 -0.00455315
15 2 5.41068 8.71873 11.6975 0.00443013 -0.0167806 -0.00240869
16 1 8.56534 7.46537 11.9585 -0.00308563 -0.00175965 0.000717046
17 2 8.56697 7.03142 3.77798 0.00884313 -0.0046258 -0.0021345
18 2 7.80377 8.08901 11.9229 -0.00643449 0.0104938 -0.0165466
19 1 4.10036 7.51916 11.5139 0.00312226 0.000819067 0.000423271
20 2 3.8142 7.28842 2.55415 0.0121599 0.000870931 -0.0100103
21 2 12.1625 10.0749 11.1743 0.00888747 0.0118318 -0.00976849
22 1 10.3855 9.62504 11.9867 0.00040211 -0.00181628 -0.00100654
23 2 10.1863 9.80418 3.0674 -0.0225805 -0.00409507 0.00593268
24 2 9.32489 8.08653 11.8159 0.0126999 0.0257744 0.0143826
25 1 4.16276 8.53469 6.74876 0.00149894 0.00174293 0.000184765
26 2 3.67288 8.79732 5.96369 -0.0374995 0.0243031 -0.00169355
27 2 12.427 5.20395 4.08764 -0.00888174 -0.00929829 0.0141649
28 1 8.88422 6.84721 4.71784 -0.00266508 0.000316906 0.00213196
29 2 9.17259 5.86442 4.7711 0.0106333 0.00539707 0.00867722
30 2 7.48416 6.07123 5.28447 -0.000570847 0.00139038 -0.0257114
31 1 3.36626 9.71603 4.50494 0.00366468 0.00385411 0.00574972
32 2 12.6561 10.5197 4.65551 0.0013026 0.0236816 -0.00811458
33 2 4.14599 9.98325 4.05377 -0.00604745 -0.00840921 -0.00331488
34 1 8.27449 5.473 8.10928 -0.000306086 0.00277068 -0.000667178
35 2 8.47213 4.49701 8.07237 -0.00715672 0.00268664 0.0399861
36 2 7.62087 5.53104 8.82982 -0.0350296 -0.00959405 -0.0357459
37 1 8.98622 11.5884 10.5076 -0.00155443 0.00223552 0.000876398
38 2 9.41808 12.1983 9.88436 0.0083546 0.0166118 -0.00236075
39 2 9.94072 10.3649 11.5353 -0.0130683 0.00361896 0.0254742
40 1 12.0852 12.0904 5.30024 -0.00441988 0.00128344 0.00206647
41 2 3.09364 13.6773 4.52402 0.0197705 0.0145145 -0.0157185
42 2 11.1115 12.3063 5.14622 -0.0111246 -0.0101082 0.00980797
43 1 3.39278 4.66494 4.08965 0.00334596 -0.00608826 0.0013731
44 2 11.6462 8.08843 3.85187 -0.00307099 -0.0189849 0.00141306
45 2 4.84989 4.66033 2.8704 -0.013841 -0.0135121 0.0120779
46 1 9.72529 12.5628 8.02423 0.00235377 0.000586674 0.00309072
47 2 9.16047 12.2972 7.26704 0.0011323 0.0232468 0.00452558
48 2 10.5296 12.049 8.05115 -0.0110673 0.00636712 0.00177126
49 1 10.3792 6.15262 9.76599 0.00280916 0.00238638 -3.47133e-05
50 2 9.80896 5.76138 9.16913 0.00524852 -0.0128999 0.00367653
51 2 9.87929 6.3144 10.5958 0.0313981 -0.0123668 0.00986124
52 1 9.74082 9.69945 4.76566 0.00530234 -0.000903612 0.000292642
53 2 9.38832 8.81537 4.9282 -0.0101096 -0.0118747 -0.0126944
54 2 9.09624 10.2339 5.18852 0.020975 0.0127233 0.0115212
55 1 4.71982 11.3516 2.97321 -0.00264325 0.00010927 -0.00272195
56 2 5.50747 10.7252 2.89634 -0.0159622 0.0451661 -0.0346808
57 2 4.11393 10.9055 2.29392 0.00793262 0.0193763 0.0258026
58 1 6.85207 10.4052 9.41623 0.00483658 0.00595398 0.00121756
59 2 4.93252 11.9433 7.29005 0.00379259 0.00281385 0.000655906
60 2 8.17315 11.3139 10.0285 -0.00638777 0.0120573 -0.0320238
61 1 7.05155 5.28412 5.75111 -0.00539749 -0.0055157 0.00286423
62 2 7.39444 5.34772 6.72932 0.0194633 -0.00581014 -0.00464182
63 2 5.67422 5.83596 5.95478 -0.0391292 0.00763883 0.0175446
64 1 5.53548 11.1691 7.1637 -0.00608304 0.00277872 0.000869678
65 2 4.97553 10.4277 6.9418 -0.0119153 -0.00279655 -0.00902424
66 2 12.0214 11.6471 6.20753 -0.0297129 0.00685796 0.0142449
67 1 12.3778 11.7859 8.20918 0.00380276 -0.00257541 -0.000419318
68 2 12.6989 12.6743 8.11187 -0.0217485 0.00906969 -0.00404597
69 2 12.6966 11.595 9.09454 0.0116786 -0.000678571 -0.0177789
70 1 9.81156 4.30507 4.82355 0.000440613 -0.00343131 -0.000720173
71 2 10.0058 13.7422 3.9822 0.0123783 -0.00932002 0.00365627
72 2 8.97678 13.7167 5.11478 -0.0155355 -0.0238201 0.0041005
73 1 11.5265 8.36458 8.14342 0.0036887 0.00611357 -0.00614077
74 2 11.3039 7.58709 8.73313 -0.00087631 -0.0154431 -0.00340898
75 2 12.2841 8.07901 7.66991 -0.0140575 0.0164657 0.00455254
76 1 3.0951 5.44009 9.85535 -0.00342025 0.00935282 -0.00370124
77 2 11.9682 5.68045 9.79871 -0.0107319 0.00426558 -0.00725515
78 2 3.66064 6.87217 10.9185 0.027622 0.0238556 0.0160659
79 1 3.12972 10.2645 10.6823 0.00382769 0.0012005 0.00194939
80 2 3.29673 9.3852 10.3952 -0.0347492 -0.00542287 0.019699
81 2 6.37136 10.7009 8.59266 0.00453433 0.0203059 -0.00531923
82 1 6.08643 5.80934 9.7741 -0.00181944 -0.00706088 -0.000307836
83 2 5.49952 6.53622 10.0631 0.00358581 -0.0059457 0.0362031
84 2 6.17597 5.29937 10.6142 -0.00280777 0.0234926 -0.0178166
85 1 10.0058 13.6556 2.18175 -0.000135184 -0.00816576 -0.000376768
86 2 9.51949 12.9582 11.5751 -0.0317412 -0.00745923 -0.00771843
87 2 3.11387 4.51032 10.248 -0.00150315 0.00628439 -0.00589124
88 1 7.97269 11.7661 5.87469 0.000661075 0.00172031 0.00421027
89 2 7.11024 11.2978 6.13128 -0.00316568 -0.00914275 -0.00328754
90 2 7.65294 12.6514 5.78538 -0.0105131 -0.00139405 0.00831119
91 1 4.57701 5.94215 6.09512 0.0086216 -0.00276923 -0.00432068
92 2 4.56346 7.67297 6.6493 0.0233319 0.00482779 -0.00659076
93 2 3.89923 4.82806 7.07443 0.00885287 0.0216472 0.0135907
94 1 4.06486 4.15279 7.82712 0.00522558 -0.00504891 -0.00117954
95 2 4.18829 4.80911 8.5963 -0.0200179 -0.0155158 0.0321685
96 2 4.10613 5.49179 5.31369 -0.00605078 -0.0370869 0.0046889
ITEM: TIMESTEP
2
ITEM: NUMBER OF ATOMS
96
ITEM: BOX BOUNDS pp pp pp
2.9236100000000000e+00 1.2773600000000000e+01
4.0306300000000004e+00 1.3880599999999999e+01
2.1372399999999998e+00 1.1987200000000000e+01
ITEM: ATOMS id type x y z vx vy vz
1 1 5.61471 4.34235 2.42314 -0.00603414 0.00137824 -0.00318195
2 2 5.40527 13.2108 2.25407 0.0176456 -0.00809371 -0.0676017
3 2 10.9587 13.5713 11.9521 -0.0111577 -0.000725543 -0.00472504
4 1 12.4992 12.9701 11.6514 -0.00184882 0.000646885 0.00153083
5 2 12.5074 12.1635 11.1461 -0.0337237 -0.0210879 -0.0254431
6 2 3.24491 12.7901 2.54403 0.0123084 -0.0157591 -0.00523622
7 1 11.6345 7.16183 3.76468 -0.000189562 -0.00210684 -0.00574189
8 2 10.7352 6.94997 3.8226 0.0208942 0.0285788 -0.007353
9 2 9.64696 8.43266 7.68111 0.00602564 -0.00483051 -0.0091553
10 1 8.73346 8.69788 7.90842 0.00215256 0.00412631 -0.000292226
11 2 8.23341 7.87342 7.99394 -0.00639605 0.0116154 -0.011515
12 2 7.47734 9.75779 9.05697 0.00242691 -0.000728707 0.00915059
13 1 6.24175 9.07246 2.14996 -0.00140841 -0.00969803 0.00544751
14 2 6.47072 9.7319 11.3549 -0.0273102 -0.0136914 -0.00854343
15 2 5.41182 8.70965 11.6959 0.000185428 -0.0195999 -0.00398395
16 1 8.56382 7.46454 11.9588 -0.00295121 -0.00149871 0.000687005
17 2 8.57175 7.02881 3.77673 0.0102467 -0.00574897 -0.00301732
18 2 7.79994 8.0937 11.9148 -0.00862886 0.00791506 -0.0159542
19 1 4.1019 7.51955 11.5141 0.00308403 0.000808036 0.000309139
20 2 3.81988 7.28876 2.54897 0.0103845 0.000326896 -0.0101034
21 2 12.1667 10.0812 11.1695 0.0072843 0.0139078 -0.00874782
22 1 10.3857 9.62414 11.9862 0.000361167 -0.001775 -0.00114951
23 2 10.1751 9.80178 3.07161 -0.021961 -0.00576841 0.0106561
24 2 9.33156 8.09912 11.8233 0.0132849 0.0239334 0.0154281
25 1 4.16354 8.53563 6.74899 0.00158198 0.00203064 0.000691198
26 2 3.65379 8.80947 5.96158 -0.0380696 0.0237596 -0.00580677
27 2 12.4227 5.19952 4.09446 -0.00816204 -0.00848345 0.0130888
28 1 8.88285 6.84736 4.71891 -0.00279888 0.000254964 0.00214941
29 2 9.17816 5.86765 4.77498 0.0116881 0.00739899 0.00681524
30 2 7.48401 6.07208 5.27153 -0.000361556 0.00126157 -0.0254834
31 1 3.36796 9.71788 4.50786 0.00314382 0.00357209 0.00593733
32 2 12.6569 10.5319 4.65154 0.00203442 0.0247941 -0.0077491
33 2 4.14436 9.98003 4.05126 -0.000359248 -0.00454946 -0.0067377
34 1 8.27436 5.47431 8.10892 -0.000212695 0.00247574 -0.00074495
35 2 8.46892 4.49893 8.09239 -0.00542208 0.00481548 0.0397822
36 2 7.60261 5.52655 8.81226 -0.0380402 -0.00807542 -0.0343476
37 1 8.98549 11.5895 10.5081 -0.00141735 0.00240966 0.000948191
38 2 9.42264 12.2066 9.88254 0.00964373 0.016214 -0.00440822
39 2 9.93408 10.3667 11.5472 -0.0134201 0.00358572 0.0214917
40 1 12.0829 12.091 5.30136 -0.00501124 0.00106547 0.00244239
41 2 3.10365 13.6848 4.51604 0.0199242 0.0144279 -0.0156763
42 2 11.1079 12.3011 5.1513 -0.00349228 -0.0107797 0.0102578
43 1 3.3944 4.66187 4.09036 0.00311006 -0.00612223 0.00145383
44 2 11.6447 8.08029 3.85274 -0.00253625 -0.0126109 0.00215144
45 2 4.84246 4.65402 2.87689 -0.0154908 -0.0122773 0.0135726
46 1 9.72637 12.5632 8.02581 0.00198317 0.000918281 0.003244
47 2 9.16158 12.3082 7.26938 0.00316986 0.0209192 0.00457263
48 2 10.5247 12.0517 8.05154 -0.00796604 0.00378226 -0.000256437
49 1 10.3807 6.15394 9.7661 0.00309392 0.00287214 0.000439316
50 2 9.80973 5.75374 9.16933 -0.00205567 -0.0174941 -0.0025218
51 2 9.89487 6.30811 10.6006 0.0306189 -0.0127931 0.00934268
52 1 9.7435 9.69895 4.76581 0.00540652 -0.00112374 0.000310358
53 2 9.38355 8.80898 4.92168 -0.00888403 -0.0130286 -0.0134177
54 2 9.10599 10.2415 5.19479 0.0181615 0.0176286 0.0134522
55 1 4.71855 11.3515 2.97174 -0.00245411 -0.000367584 -0.00310584
56 2 5.49872 10.7491 2.87946 -0.0178217 0.0492007 -0.0328033
57 2 4.11826 10.9164 2.30762 0.00849444 0.0233435 0.0280798
58 1 6.85448 10.4082 9.41683 0.00478823 0.00583675 0.00116446
59 2 4.93454 11.9439 7.29037 0.00409662 -0.000295647 0.000624716
60 2 8.16908 11.3195 10.0124 -0.00939298 0.0103985 -0.0320464
61 1 7.04892 5.28131 5.75254 -0.00509205 -0.00564268 0.00287237
62 2 7.40407 5.3449 6.72671 0.0189687 -0.00542848 -0.0061686
63 2 5.65236 5.83942 5.96345 -0.0469454 0.00597232 0.0169602
64 1 5.53245 11.1706 7.16412 -0.00606407 0.00303347 0.000805514
65 2 4.96889 10.426 6.93733 -0.0144011 -0.00370794 -0.00873636
66 2 12.007 11.6517 6.21319 -0.0276809 0.0113861 0.00822106
67 1 12.3797 11.7845 8.20899 0.00367018 -0.00274434 -0.000362044
68 2 12.6885 12.6807 8.10874 -0.0201394 0.0160589 -0.00832625
69 2 12.7023 11.5932 9.08628 0.0110944 -0.0063678 -0.0148735
70 1 9.81173 4.30335 4.8233 0.000210917 -0.00349959 -0.000282272
71 2 10.0121 13.7374 3.98253 0.0127267 -0.00967334 -0.00211945
72 2 8.96953 13.7051 5.11682 -0.0127212 -0.0222162 0.00373613
73 1 11.5283 8.36755 8.14043 0.00328776 0.00576959 -0.00577055
74 2 11.3037 7.58052 8.7307 0.000207018 -0.0103825 -0.00660302
75 2 12.2782 8.08736 7.67157 -0.00880238 0.0166784 0.00164448
76 1 3.09343 5.44468 9.85353 -0.00328498 0.0090291 -0.00356798
77 2 11.9636 5.68211 9.79514 -0.00763407 0.00233088 -0.00702795
78 2 3.67454 6.88406 10.927 0.0272786 0.0227326 0.0168316
79 1 3.1316 10.2651 10.6833 0.00368562 0.00132218 0.00205925
80 2 3.28023 9.38164 10.4045 -0.0308281 -0.00919035 0.0172263
81 2 6.37326 10.7116 8.59025 0.00333632 0.0221848 -0.00411115
82 1 6.0855 5.80583 9.77402 -0.00193565 -0.00694149 -2.49937e-05
83 2 5.5017 6.53266 10.0809 0.00517519 -0.00822474 0.0347608
84 2 6.17438 5.31137 10.6047 -0.00316419 0.0235552 -0.0193739
85 1 10.0056 13.6516 2.18162 -0.000718187 -0.0078274 -0.000140449
86 2 9.50398 12.9539 11.5711 -0.0298384 -0.00922393 -0.00812624
87 2 3.1128 4.51494 10.2449 -0.00279339 0.012185 -0.00639171
88 1 7.97293 11.7669 5.87682 0.000277327 0.0015401 0.00431587
89 2 7.11032 11.2939 6.12941 0.00361101 -0.00665194 -0.00421267
90 2 7.64765 12.6514 5.78936 -0.0106233 0.00134163 0.0076205
91 1 4.58133 5.94082 6.09296 0.0085873 -0.00252662 -0.00430904
92 2 4.57508 7.67435 6.64529 0.0227139 0.00139043 -0.00962334
93 2 3.90395 4.83783 7.08096 0.0100756 0.0171666 0.0128919
94 1 4.06749 4.15039 7.82658 0.00528269 -0.00451418 -0.000951783
95 2 4.1781 4.79984 8.61219 -0.0207853 -0.0217262 0.0308676
96 2 4.10416 5.47355 5.31612 -0.00170346 -0.0357259 0.00509737
ITEM: TIMESTEP
3
ITEM: NUMBER OF ATOMS
96
ITEM: BOX BOUNDS pp pp pp
2.9236100000000000e+00 1.2773600000000000e+01
4.0306300000000004e+00 1.3880599999999999e+01
2.1372399999999998e+00 1.1987200000000000e+01
ITEM: ATOMS id type x y z vx vy vz
1 1 5.61172 4.34289 2.42147 -0.00594485 0.000794361 -0.00348774
2 2 5.41448 13.2086 2.22097 0.0189771 5.65015e-05 -0.0644037
3 2 10.954 13.5703 11.9492 -0.00747963 -0.00319707 -0.00689278
4 1 12.4983 12.9704 11.6521 -0.00155588 0.00067945 0.00133517
5 2 12.4906 12.1521 11.1332 -0.033436 -0.0229668 -0.0254625
6 2 3.25108 12.7822 2.54157 0.0120983 -0.0157383 -0.00501578
7 1 11.6345 7.16067 3.76179 0.000342676 -0.0025141 -0.00583697
8 2 10.744 6.96387 3.81911 0.012819 0.0262657 -0.00660539
9 2 9.64951 8.43039 7.67696 0.00392529 -0.00417681 -0.00734852
10 1 8.7345 8.69993 7.90827 0.00204973 0.00407143 -0.000305887
11 2 8.23099 7.87929 7.98803 -0.00333981 0.0117428 -0.0121086
12 2 7.47902 9.75703 9.06159 0.00412761 -0.00222533 0.00918115
13 1 6.24113 9.06765 2.15276 -0.00106361 -0.00952246 0.00573587
14 2 6.45742 9.72559 11.3497 -0.0257117 -0.0115888 -0.012244
15 2 5.41087 8.69913 11.6936 -0.00369125 -0.0224702 -0.00508525
16 1 8.56239 7.46387 11.9592 -0.0027618 -0.0011036 0.000645187
17 2 8.57721 7.02567 3.77496 0.0115274 -0.00674778 -0.00419572
18 2 7.79514 8.09692 11.9069 -0.0102681 0.00465565 -0.0152265
19 1 4.10345 7.51997 11.5143 0.00314196 0.000934194 0.000246895
20 2 3.82458 7.28875 2.54405 0.00827333 -0.00049304 -0.00898841
21 2 12.1698 10.0888 11.1655 0.00438885 0.0164979 -0.00674413
22 1 10.3859 9.62327 11.9856 0.000260766 -0.00170787 -0.0012042
23 2 10.1644 9.79841 3.07805 -0.0208742 -0.00798081 0.0146688
24 2 9.33817 8.11047 11.8313 0.0125027 0.0208827 0.0166646
25 1 4.16435 8.53672 6.74945 0.00162046 0.00230765 0.00107823
26 2 3.63481 8.82108 5.95788 -0.0369848 0.0221807 -0.00799048
27 2 12.4189 5.19547 4.10073 -0.00714934 -0.00778719 0.0119457
28 1 8.88142 6.84747 4.71999 -0.00295739 0.000192574 0.0021863
29 2 9.18428 5.87182 4.77792 0.0128323 0.0090881 0.00498692
30 2 7.4838 6.0725 5.25898 -0.00077608 -0.000303915 -0.0241609
31 1 3.3694 9.71961 4.51088 0.00259233 0.00335648 0.00613718
32 2 12.6582 10.5445 4.64776 0.00327483 0.0250879 -0.00734738
33 2 4.14563 9.9787 4.04703 0.0052483 -0.000952517 -0.0100048
34 1 8.27428 5.47547 8.10853 -0.000129631 0.00216793 -0.000787473
35 2 8.4667 4.50182 8.11215 -0.00324458 0.00656967 0.0390037
36 2 7.58283 5.52297 8.79547 -0.0410231 -0.00595876 -0.0328496
37 1 8.98481 11.5908 10.5086 -0.0013195 0.00262985 0.000904065
38 2 9.42772 12.2145 9.87995 0.0103864 0.0148597 -0.0054742
39 2 9.9273 10.3685 11.5568 -0.0136149 0.00345512 0.0169668
40 1 12.0802 12.0915 5.30268 -0.00561877 0.000818226 0.00285302
41 2 3.11357 13.6917 4.50834 0.0194204 0.0122725 -0.0146431
42 2 11.108 12.2956 5.15647 0.00385792 -0.0111454 0.0101503
43 1 3.39589 4.65882 4.0911 0.0028936 -0.00602032 0.00146906
44 2 11.6437 8.07582 3.85402 -0.0012018 -0.00451431 0.00299671
45 2 4.8344 4.64805 2.88397 -0.0162585 -0.0121275 0.014373
46 1 9.72727 12.5637 8.02748 0.00158936 0.00129665 0.00343866
47 2 9.16364 12.3181 7.27161 0.00489165 0.0183612 0.00413856
48 2 10.5216 12.0528 8.0509 -0.00417768 0.00066516 -0.00232777
49 1 10.3823 6.15549 9.76642 0.00335731 0.00332855 0.000823007
50 2 9.80691 5.74388 9.16661 -0.0087914 -0.0215485 -0.00764619
51 2 9.90991 6.30161 10.6051 0.0293147 -0.0132345 0.00913622
52 1 9.74623 9.69832 4.76597 0.00546776 -0.00137586 0.000344686
53 2 9.37944 8.80234 4.91478 -0.00748868 -0.0128565 -0.0141275
54 2 9.1144 10.2515 5.20197 0.0157721 0.0217165 0.0150578
55 1 4.71736 11.3512 2.97011 -0.0023021 -0.000613597 -0.00334155
56 2 5.48965 10.7744 2.86353 -0.0170559 0.0512655 -0.0310109
57 2 4.12242 10.9289 2.322 0.007126 0.0259337 0.028383
58 1 6.85686 10.411 9.41739 0.00472387 0.00574769 0.00109745
59 2 4.93662 11.943 7.29068 0.00396489 -0.00296967 0.000657751
60 2 8.16376 11.3243 9.99645 -0.0113204 0.00899093 -0.0312393
61 1 7.04646 5.27847 5.75398 -0.00474995 -0.00567009 0.00284235
62 2 7.41341 5.34229 6.72315 0.0182628 -0.00495714 -0.00839432
63 2 5.62727 5.84193 5.97174 -0.0517568 0.00385113 0.015971
64 1 5.52942 11.1722 7.16451 -0.00604349 0.00321249 0.000731253
65 2 4.96113 10.424 6.93306 -0.0163646 -0.00394192 -0.00819318
66 2 11.9937 11.6585 6.21575 -0.0250468 0.015772 0.00208033
67 1 12.3815 11.7831 8.20882 0.00353237 -0.0028532 -0.000365857
68 2 12.6788 12.6904 8.10355 -0.0186279 0.022094 -0.0121723
69 2 12.7077 11.5886 9.07967 0.0109286 -0.0118851 -0.0113927
70 1 9.81177 4.30157 4.82327 -8.89988e-05 -0.00362365 0.000140829
71 2 10.0186 13.7325 3.98008 0.0128092 -0.0097211 -0.00724019
72 2 8.96406 13.6945 5.11852 -0.00856346 -0.0199015 0.00279602
73 1 11.5298 8.37035 8.13765 0.00279501 0.00540746 -0.00532406
74 2 11.3041 7.57671 8.72653 0.00146089 -0.00461278 -0.0102322
75 2 12.2753 8.09568 7.67155 -0.00231148 0.0164545 -0.00203117
76 1 3.09182 5.44911 9.85178 -0.00315401 0.00869669 -0.00344476
77 2 11.9606 5.68278 9.79169 -0.00442205 0.000451755 -0.0068396
78 2 3.68792 6.89491 10.9353 0.0255756 0.0197422 0.0157574
79 1 3.13341 10.2658 10.6844 0.00356978 0.00144814 0.00212381
80 2 3.2659 9.37601 10.4124 -0.0261464 -0.0134652 0.0141177
81 2 6.3747 10.7231 8.58855 0.00265495 0.0236062 -0.0025385
82 1 6.0845 5.8024 9.77407 -0.00210993 -0.00670565 0.000174177
83 2 5.5047 6.528 10.0978 0.00682241 -0.0102813 0.0324831
84 2 6.17281 5.32293 10.5948 -0.00272271 0.0216674 -0.018923
85 1 10.005 13.6478 2.18161 -0.00139995 -0.00753504 7.83675e-05
86 2 9.48965 12.949 11.567 -0.0270108 -0.01011 -0.00793721
87 2 3.11107 4.5225 10.2416 -0.00406809 0.0177843 -0.00668686
88 1 7.97297 11.7676 5.879 -0.000108818 0.00137029 0.00441144
89 2 7.11385 11.2912 6.12707 0.0103688 -0.00414533 -0.00510302
90 2 7.64232 12.6527 5.793 -0.0106467 0.00382028 0.0069678
91 1 4.5856 5.93962 6.09081 0.00839874 -0.00225495 -0.00428977
92 2 4.58617 7.67436 6.63968 0.0211645 -0.000573111 -0.0128925
93 2 3.9093 4.84523 7.08732 0.0113094 0.0123013 0.012865
94 1 4.07014 4.14827 7.82616 0.00532226 -0.00396644 -0.000694321
95 2 4.16751 4.78738 8.62717 -0.0215841 -0.0281262 0.0286191
96 2 4.10443 5.45606 5.31879 0.00280537 -0.0341748 0.00556005
ITEM: TIMESTEP
4
ITEM: NUMBER OF ATOMS
96
ITEM: BOX BOUNDS pp pp pp
2.9236100000000000e+00 1.2773600000000000e+01
4.0306300000000004e+00 1.3880599999999999e+01
2.1372399999999998e+00 1.1987200000000000e+01
ITEM: ATOMS id type x y z vx vy vz
1 1 5.60877 4.34314 2.41965 -0.00588837 0.00021653 -0.00377929
2 2 5.42425 13.2108 2.18967 0.0198368 0.00906977 -0.0604681
3 2 10.9512 13.5681 11.9452 -0.00338873 -0.00588533 -0.00924349
4 1 12.4976 12.9707 11.6527 -0.00125057 0.000561663 0.00107491
5 2 12.474 12.1405 11.1206 -0.0328625 -0.0224684 -0.0237477
6 2 3.257 12.7743 2.53902 0.0113229 -0.0157218 -0.0055664
7 1 11.6349 7.15931 3.75884 0.000970354 -0.00289878 -0.00593805
8 2 10.748 6.97624 3.816 0.00245459 0.0226421 -0.00587205
9 2 9.65089 8.42849 7.67376 0.00141908 -0.00336386 -0.00541794
10 1 8.73551 8.70195 7.90811 0.00198235 0.00402699 -0.00032754
11 2 8.23007 7.88516 7.98183 -0.000456056 0.0115746 -0.0126519
12 2 7.48147 9.75556 9.06615 0.00548641 -0.0034863 0.00891325
13 1 6.24068 9.06293 2.15569 -0.000755833 -0.00934964 0.00594528
14 2 6.44501 9.72031 11.3427 -0.0238558 -0.00967377 -0.0153565
15 2 5.40813 8.68718 11.6908 -0.00678224 -0.0251865 -0.00557625
16 1 8.56106 7.46344 11.9595 -0.00252655 -0.000596973 0.000596422
17 2 8.58328 7.02207 3.77253 0.0126663 -0.00758377 -0.00563173
18 2 7.78967 8.09836 11.8995 -0.0113608 0.000864162 -0.0143678
19 1 4.10504 7.52048 11.5144 0.0032852 0.00118831 0.000239524
20 2 3.82815 7.28827 2.53998 0.00588501 -0.00153327 -0.00677974
21 2 12.1711 10.0977 11.1628 0.000529321 0.0195049 -0.00400364
22 1 10.386 9.62244 11.985 9.87406e-05 -0.00161086 -0.00116663
23 2 10.1542 9.7938 3.08628 -0.0193303 -0.0106358 0.0176757
24 2 9.34406 8.12001 11.8399 0.0104888 0.0168615 0.0180107
25 1 4.16516 8.53794 6.75007 0.00161152 0.00256438 0.00133891
26 2 3.61681 8.83165 5.95359 -0.0342076 0.0196656 -0.0082925
27 2 12.4156 5.19173 4.10641 -0.00587223 -0.00721021 0.0107559
28 1 8.8799 6.84755 4.7211 -0.003137 0.000134216 0.00223498
29 2 9.191 5.87674 4.77996 0.0140815 0.0103713 0.00325635
30 2 7.48323 6.07178 5.24737 -0.00175643 -0.00317974 -0.0218222
31 1 3.37056 9.72124 4.514 0.00204606 0.00322007 0.0063273
32 2 12.6602 10.557 4.64419 0.00503403 0.0244898 -0.00690028
33 2 4.14961 9.97908 4.04125 0.0102097 0.00222618 -0.0127856
34 1 8.27423 5.47648 8.10814 -6.89027e-05 0.00185768 -0.000778936
35 2 8.46568 4.5055 8.13139 -0.000682554 0.00790791 0.0377411
36 2 7.56159 5.52059 8.77941 -0.0437218 -0.00336058 -0.03152
37 1 8.98417 11.5922 10.509 -0.00126312 0.00289223 0.000744854
38 2 9.43303 12.2215 9.87707 0.0105466 0.0125524 -0.00561515
39 2 9.92047 10.3702 11.5641 -0.0135941 0.00310369 0.0121477
40 1 12.0773 12.0918 5.30421 -0.00619959 0.000554847 0.00326698
41 2 3.12307 13.6971 4.5014 0.0182941 0.00817788 -0.0126961
42 2 11.1117 12.2899 5.16145 0.0103435 -0.0111247 0.00944104
43 1 3.39729 4.65585 4.09183 0.0026978 -0.00578838 0.0014247
44 2 11.6435 8.07577 3.85574 0.000996626 0.00455549 0.00388772
45 2 4.8262 4.64189 2.89126 -0.0160765 -0.0129916 0.0144052
46 1 9.72796 12.5645 8.02925 0.00119655 0.00170131 0.00367047
47 2 9.16647 12.3266 7.27351 0.00628909 0.0156389 0.00327736
48 2 10.5206 12.0523 8.04921 -2.57561e-05 -0.0027166 -0.00440532
49 1 10.3841 6.15726 9.76692 0.00356241 0.00372978 0.0010872
50 2 9.80094 5.73219 9.16168 -0.0144172 -0.0246331 -0.0111606
51 2 9.92418 6.29488 10.6097 0.0275785 -0.0137192 0.00912789
52 1 9.74897 9.69757 4.76616 0.00547618 -0.00163786 0.00040117
53 2 9.37606 8.79612 4.90755 -0.00597798 -0.0114116 -0.0147616
54 2 9.12176 10.2632 5.20985 0.0140294 0.0246888 0.0161313
55 1 4.71624 11.3509 2.9684 -0.00219304 -0.00061876 -0.00340196
56 2 5.48166 10.8003 2.84845 -0.0134341 0.0512425 -0.0295256
57 2 4.12539 10.9423 2.33601 0.00367258 0.026999 0.0265251
58 1 6.8592 10.4139 9.41793 0.0046522 0.00568193 0.00102076
59 2 4.93851 11.9409 7.29102 0.00334041 -0.0050695 0.000784241
60 2 8.15776 11.3284 9.98114 -0.0121034 0.00786008 -0.029554
61 1 7.04417 5.27564 5.75539 -0.00437792 -0.0056048 0.00277059
62 2 7.42234 5.33994 6.71831 0.017374 -0.0044342 -0.0111825
63 2 5.6006 5.84327 5.97943 -0.0530677 0.00128896 0.0146281
64 1 5.5264 11.1738 7.16485 -0.00602323 0.00330446 0.000645592
65 2 4.95253 10.4221 6.92913 -0.0177192 -0.00346854 -0.00737163
66 2 11.9819 11.6674 6.21528 -0.0219247 0.0197559 -0.00364236
67 1 12.3832 11.7817 8.20862 0.00340159 -0.00287324 -0.000417473
68 2 12.6698 12.7028 8.09657 -0.0172597 0.0265084 -0.0153281
69 2 12.7132 11.5813 9.07489 0.0110722 -0.016954 -0.00778233
70 1 9.81164 4.29973 4.82344 -0.000433396 -0.00380264 0.000521844
71 2 10.0249 13.7277 3.97529 0.0125287 -0.00932143 -0.0114241
72 2 8.96097 13.6852 5.11962 -0.00337412 -0.0170323 0.00138627
73 1 11.5311 8.37296 8.13511 0.0022513 0.00504284 -0.00484152
74 2 11.3052 7.5759 8.72047 0.00279118 0.00142495 -0.013995
75 2 12.2759 8.10381 7.66954 0.00490472 0.0159721 -0.00612852
76 1 3.09028 5.45338 9.85008 -0.00301503 0.0083733 -0.00334316
77 2 11.9591 5.68256 9.78831 -0.00145087 -0.00121394 -0.0067425
78 2 3.70012 6.9038 10.9427 0.0226369 0.0149907 0.0128984
79 1 3.13517 10.2665 10.6855 0.00347373 0.00154385 0.00213865