ITEM: TIMESTEP
0
ITEM: NUMBER OF ATOMS
96
ITEM: BOX BOUNDS pp pp pp
2.9236100000000000e+00 1.2773600000000000e+01
4.0306300000000004e+00 1.3880599999999999e+01
2.1372399999999998e+00 1.1987200000000000e+01
ITEM: ATOMS id type x y z vx vy vz
1 1 7.29523 12.6595 3.2189 -0.00107606 -0.00236212 -0.00318592
2 2 6.58384 12.1279 2.85617 0.00472991 0.0109803 -0.0166486
3 2 9.20688 13.2164 11.2043 0.0100647 -0.0240427 -0.00492452
4 1 12.416 10.1012 2.29472 0.000889023 0.0018476 0.00531166
5 2 11.5835 10.6404 11.8374 -0.000718687 -0.00448283 -0.00889677
6 2 12.1001 9.3475 2.82189 -0.0132499 0.022326 -0.016285
7 1 12.1897 7.73125 3.98212 -0.000558445 -0.00246008 -0.00521457
8 2 11.376 7.21487 4.07015 -0.0147471 0.0118423 0.0133921
9 2 8.01339 8.42663 8.20167 -0.00118508 -0.0114847 -0.0088882
10 1 7.41455 7.86085 8.74761 -0.00597776 -0.0114896 -0.000782385
11 2 6.93316 7.49723 8.04017 -0.0192793 0.0259866 -0.014809
12 2 6.67952 9.26223 9.2708 0.0105477 -0.0162749 0.00822788
13 1 5.75225 8.65967 2.269 -0.00550916 -0.00475326 -0.00131157
14 2 6.08187 8.87698 11.2621 0.000407454 -0.0103861 0.0313848
15 2 5.47864 7.73803 2.19777 0.0121262 0.0544375 0.0184828
16 1 9.72529 8.01505 10.9829 0.00183778 0.00201323 0.00283534
17 2 9.66742 7.56601 11.8902 0.00949812 -0.0104106 0.0111626
18 2 8.81264 7.85209 10.7132 -0.00125461 -0.0228376 -0.0197393
19 1 4.76751 5.72724 11.4787 -0.00155394 -0.00352416 -0.000744091
20 2 4.53956 5.53815 2.60099 -0.000926482 0.00113092 -0.0150356
21 2 11.3272 8.88318 10.2058 0.0192274 0.0162456 -0.0228156
22 1 9.96782 10.8127 11.6157 -0.00211214 -0.00237764 -0.000256685
23 2 9.67663 10.7581 2.73373 0.0165392 0.00955762 -0.00915291
24 2 9.8446 9.8835 11.3673 -0.00509255 0.0303266 0.00331529
25 1 3.40971 8.35635 6.35325 -0.0037894 0.000302836 0.0028859
26 2 3.78498 9.20992 6.43154 -0.00375287 0.0193423 -0.0205148
27 2 3.50444 6.50106 4.00408 0.0150117 0.0139446 0.00669964
28 1 9.51389 7.10789 4.23716 0.00306321 0.00841789 -0.00620845
29 2 9.15098 6.84161 5.06137 0.00515874 0.00349136 -0.00735861
30 2 9.20891 8.02278 4.10467 0.00556615 0.011828 -0.0117907
31 1 3.78117 11.2679 5.76982 -0.00100985 -0.00063773 0.00320878
32 2 3.35959 12.6723 5.25994 -0.0184957 0.00920219 -0.0339815
33 2 4.35052 11.0989 4.97297 0.00527044 0.0126024 0.00586129
34 1 7.76738 5.03076 9.05922 -0.000644552 1.29082e-05 0.00766542
35 2 7.9801 4.09785 9.20854 0.00908662 -0.02946 -0.00446116
36 2 7.61536 5.4761 9.91991 -0.0277602 0.0051994 -0.0140623
37 1 8.02436 12.0313 10.1437 0.00160466 0.00790485 -0.000999275
38 2 9.18138 12.0716 8.96096 0.0303294 0.00466987 0.0120073
39 2 8.59818 11.6571 10.8254 -0.00359368 -0.00698239 -0.00651447
40 1 12.6485 13.5997 5.27661 0.00351175 0.00220127 0.00132466
41 2 3.62426 5.01224 4.39263 -0.0112356 0.00419978 -0.016616
42 2 11.7538 13.311 5.02598 0.0110769 -0.0103441 0.0131324
43 1 4.19131 5.80218 4.21674 0.00150589 0.00601686 -0.000687777
44 2 12.3576 8.22362 4.81242 -0.000782343 -0.0325833 -0.0108238
45 2 7.36967 12.4725 4.15743 -0.00662401 -0.0437912 -0.00836823
46 1 9.48128 12.3591 8.0373 -0.00624728 -0.0015557 0.00217342
47 2 8.29442 12.2567 6.81402 -0.0124665 -0.0266703 0.0114044
48 2 10.258 11.788 7.76612 0.0103267 0.000223152 -0.00769028
49 1 10.4475 6.70489 8.52665 0.000396648 -0.000613123 0.00179651
50 2 9.46119 6.47669 8.54197 -0.00167423 0.00925753 -0.0160576
51 2 10.422 7.32386 9.30374 -0.00327902 -0.00816956 0.0138511
52 1 9.20035 10.3465 4.41108 0.00302086 -0.00348106 -0.000802066
53 2 8.96511 10.055 5.29132 -0.0212274 0.00501632 -0.0033245
54 2 8.94841 11.244 4.35218 -0.0115279 -0.00203653 -0.0182279
55 1 4.85165 11.029 3.286 0.00742069 0.000601123 0.00130985
56 2 5.2275 10.1805 2.98242 -0.00860563 0.00399876 0.00191696
57 2 3.93407 10.9612 2.99934 0.00522174 0.0203882 -0.0163547
58 1 6.23149 10.1277 9.46284 -0.000374347 0.00321971 -0.000762744
59 2 5.02597 13.1187 7.82598 0.00178907 -0.00751024 -0.00573468
60 2 7.32413 11.3149 9.8302 0.0188862 -0.00528391 0.0178442
61 1 8.29286 5.29125 6.41004 -0.00193861 -0.000742844 0.00357671
62 2 8.59266 5.44393 7.36965 -0.0149918 0.0237636 -0.00524944
63 2 7.49123 5.80419 6.21157 0.0187679 -0.0166799 -0.0135173
64 1 5.4695 12.2292 7.56732 0.000884928 0.00029905 -0.00576681
65 2 4.60725 11.661 6.62721 0.0188936 0.00946813 -0.0169956
66 2 3.45644 4.53386 6.91855 0.0146383 -0.00664045 0.0161403
67 1 11.6274 10.6036 7.45808 0.00128696 -0.00440185 0.00120436
68 2 12.3247 10.4667 6.74972 0.00504874 -0.0158923 0.0180976
69 2 11.852 9.9574 8.17981 0.0258796 0.0357486 0.00320553
70 1 10.0023 13.3142 4.22259 0.00423039 0.0013417 0.00555918
71 2 9.82888 13.655 3.30972 0.00132981 0.00245809 0.00402241
72 2 9.19032 13.456 4.62604 -0.0180843 -0.0128414 -0.00918362
73 1 9.318 9.31109 7.0421 0.00260364 -0.00382843 -0.00249305
74 2 9.75551 8.4846 6.85497 0.00423819 -0.000691672 0.0134752
75 2 10.0538 9.99897 7.21424 -0.00316486 -0.00778736 0.0131436
76 1 12.1979 4.91896 9.90502 0.00118621 0.00287032 -3.63425e-05
77 2 11.7111 5.39529 9.23948 0.011751 0.00930239 -0.00448285
78 2 4.01041 5.61064 10.9269 -0.0136111 -0.00774441 -0.0142666
79 1 12.1768 8.88734 9.68108 -0.00684888 -0.00682504 0.00326564
80 2 3.03521 9.17096 10.2973 -0.0224168 0.0158985 0.0211754
81 2 6.06356 10.5001 8.60196 -0.0104739 0.0127675 0.0220043
82 1 7.5953 5.48831 11.6741 -0.00237157 0.00558043 -0.000545214
83 2 7.67306 4.62271 2.31572 -0.00591113 -0.00539146 0.010232
84 2 6.6154 5.62271 11.7465 0.00687656 0.00693155 -0.000949901
85 1 9.80479 4.10849 11.3273 -0.00186347 -0.00140594 0.00156113
86 2 9.26479 4.86705 10.9756 -0.0188933 0.0288451 -0.00666948
87 2 11.4332 4.48668 10.4722 -0.00858102 -0.00205654 0.00985121
88 1 7.64408 12.5178 6.11529 0.00798378 -0.0022594 -0.00885197
89 2 6.43275 12.5564 6.90926 0.00778207 -0.00570978 -0.0206854
90 2 7.82387 13.5403 6.03475 0.0263364 0.0133303 0.00541934
91 1 5.96948 6.46518 6.34225 -0.0055937 0.00192085 0.00190802
92 2 4.11009 7.72925 6.32626 0.019886 -0.00958041 -0.0169824
93 2 5.4798 5.90319 6.95653 0.00707505 0.00439084 -0.0206689
94 1 4.10758 4.68752 7.71659 0.00408848 0.000635665 0.00265852
95 2 3.52294 4.71027 8.48148 -0.0240816 0.00922871 -0.00744825
96 2 5.67214 6.15839 5.42312 -0.0106598 0.0049827 0.0184118
ITEM: TIMESTEP
1
ITEM: NUMBER OF ATOMS
96
ITEM: BOX BOUNDS pp pp pp
2.9236100000000000e+00 1.2773600000000000e+01
4.0306300000000004e+00 1.3880599999999999e+01
2.1372399999999998e+00 1.1987200000000000e+01
ITEM: ATOMS id type x y z vx vy vz
1 1 7.29473 12.6584 3.21728 -0.000918978 -0.00217624 -0.00329022
2 2 6.58604 12.1332 2.84864 0.00385531 0.010265 -0.0136707
3 2 9.21218 13.2042 11.2019 0.0113621 -0.0239903 -0.00464057
4 1 12.4164 10.1021 2.29735 0.000771314 0.00197524 0.00516743
5 2 11.5841 10.6375 11.8335 0.00321735 -0.00706653 -0.00670375
6 2 12.0936 9.35882 2.81368 -0.0129728 0.0221308 -0.0159541
7 1 12.1895 7.73004 3.97942 -0.000459693 -0.00241988 -0.00560096
8 2 11.3677 7.22081 4.07733 -0.0184707 0.0118286 0.0150228
9 2 8.01323 8.42085 8.19796 0.000466067 -0.0117852 -0.00571905
10 1 7.41166 7.85517 8.74722 -0.0055843 -0.0112102 -0.000817294
11 2 6.922 7.50888 8.032 -0.0253029 0.0207198 -0.0175725
12 2 6.68515 9.25325 9.27502 0.0115966 -0.01895 0.00846785
13 1 5.74951 8.65725 2.2684 -0.00542898 -0.00476228 -0.00100898
14 2 6.08206 8.8719 11.277 0.000876237 -0.00962362 0.0270131
15 2 5.48464 7.76529 2.20671 0.0110829 0.0518544 0.0170683
16 1 9.72614 8.016 10.9845 0.00153793 0.0017643 0.00340355
17 2 9.67267 7.56169 11.8941 0.0114233 -0.00668076 0.0040779
18 2 8.81237 7.84084 10.7029 0.000714739 -0.0220647 -0.0211112
19 1 4.76682 5.72551 11.4784 -0.00124719 -0.00341008 -0.000672343
20 2 4.53872 5.53883 2.59294 -0.00251812 0.00150134 -0.0167896
21 2 11.3385 8.89129 10.194 0.0243418 0.016094 -0.0235537
22 1 9.96672 10.8115 11.6156 -0.00227758 -0.00234303 -2.8792e-05
23 2 9.68528 10.7636 2.72869 0.0178508 0.0124004 -0.0103774
24 2 9.84206 9.8978 11.368 -0.00523648 0.0256738 -0.000966824
25 1 3.40771 8.35647 6.35469 -0.00413677 0.000177508 0.00288067
26 2 3.78394 9.22039 6.42116 -0.000752106 0.0217332 -0.0211188
27 2 3.51202 6.5092 4.00751 0.0152277 0.0185782 0.00698327
28 1 9.51545 7.11215 4.23398 0.00318186 0.00861717 -0.00651128
29 2 9.15317 6.84314 5.05825 0.00360936 0.00272196 -0.00516898
30 2 9.21182 8.02821 4.09934 0.00606241 0.00982827 -0.00944361
31 1 3.78082 11.2676 5.77148 -0.000369997 -0.000569293 0.00341549
32 2 3.34991 12.6776 5.24344 -0.0196065 0.0118608 -0.031828
33 2 4.35286 11.1052 4.97641 0.00390189 0.0124626 0.00765201
34 1 7.7671 5.03077 9.06299 -0.000476065 -4.59249e-05 0.00737167
35 2 7.98452 4.08326 9.20673 0.00828616 -0.0276957 -0.00272006
36 2 7.60143 5.47826 9.91316 -0.0279588 0.00333236 -0.0126192
37 1 8.02508 12.0353 10.1431 0.00127133 0.00793283 -0.00124571
38 2 9.19661 12.0739 8.96659 0.0304993 0.00437035 0.0104908
39 2 8.59629 11.6526 10.8225 -0.00378947 -0.0109655 -0.00488375
40 1 12.6503 13.6007 5.27727 0.00358866 0.00194879 0.00129873
41 2 3.61875 5.01323 4.38495 -0.0106327 0.000129573 -0.0141451
42 2 11.759 13.3065 5.03241 0.00915692 -0.00759852 0.0125277
43 1 4.19206 5.80518 4.21637 0.00150415 0.00594745 -0.000798519
44 2 12.3573 8.20715 4.80784 -6.74034e-05 -0.0327301 -0.0069055
45 2 7.36574 12.4503 4.15281 -0.00900933 -0.045054 -0.0101069
46 1 9.47823 12.3583 8.03835 -0.00594106 -0.00168001 0.00201917
47 2 8.28924 12.2426 6.82109 -0.00854506 -0.0294152 0.0164798
48 2 10.2622 11.7888 7.76292 0.00624484 0.00326099 -0.00505783
49 1 10.4475 6.70459 8.52764 -0.000377856 -0.000571193 0.00215001
50 2 9.46231 6.48126 8.53345 0.00598735 0.00896424 -0.0179708
51 2 10.4214 7.31919 9.30962 0.000994767 -0.0105328 0.00965123
52 1 9.20188 10.3447 4.41062 0.00308889 -0.00385029 -0.00103862
53 2 8.95446 10.0575 5.29056 -0.0213017 0.00519132 6.41761e-05
54 2 8.94224 11.2443 4.34356 -0.013016 0.00287437 -0.0162643
55 1 4.85542 11.0294 3.28671 0.00761827 0.000821561 0.00151103
56 2 5.22399 10.1818 2.98336 -0.00542566 0.00105599 0.00183511
57 2 3.93505 10.9717 2.99071 -0.000841575 0.0216525 -0.018016
58 1 6.23129 10.1294 9.46251 -0.000386294 0.00334139 -0.000535047
59 2 5.02699 13.1144 7.82236 0.0022637 -0.00950434 -0.00869928
60 2 7.3344 11.3125 9.83985 0.0217515 -0.00419082 0.0203859
61 1 8.29206 5.2908 6.41185 -0.0012524 -0.00106106 0.00365174
62 2 8.58376 5.4554 7.36579 -0.020359 0.0220906 -0.00961327
63 2 7.49968 5.79655 6.20538 0.014388 -0.0134853 -0.0115006
64 1 5.47004 12.2294 7.5644 0.00128344 0.000477498 -0.00590999
65 2 4.6151 11.6655 6.61699 0.0121985 0.008387 -0.0236272
66 2 3.46524 4.53058 6.92797 0.020334 -0.00652277 0.0209432
67 1 11.6281 10.6014 7.4587 0.00139673 -0.00443575 0.00125887
68 2 12.3267 10.4591 6.75915 0.00335806 -0.014454 0.0191125
69 2 11.8651 9.97531 8.18142 0.0265478 0.0354066 0.00386297
70 1 10.0045 13.3149 4.22529 0.00450598 0.00135818 0.00525076
71 2 9.83014 13.656 3.31195 0.00379733 0.0014344 0.0049472
72 2 9.17981 13.4497 4.62282 -0.023315 -0.0124083 -0.00398508
73 1 9.31929 9.30923 7.04085 0.00255725 -0.0036081 -0.00251745
74 2 9.75809 8.48421 6.86188 0.0061656 -0.00107899 0.0141328
75 2 10.0516 9.99393 7.22046 -0.00573743 -0.0121973 0.0117628
76 1 12.1984 4.9203 9.90512 0.000755646 0.00249112 0.000454962
77 2 11.7165 5.40077 9.23677 0.0096853 0.0124996 -0.00612019
78 2 4.00259 5.60631 10.9196 -0.0170285 -0.00944421 -0.0143019
79 1 12.1733 8.88395 9.68273 -0.00686702 -0.00670892 0.00331911
80 2 3.02267 9.17884 10.3079 -0.02756 0.015548 0.0209266
81 2 6.05771 10.5073 8.61232 -0.012839 0.0161214 0.0190464
82 1 7.59403 5.49105 11.6739 -0.00265828 0.00535736 -0.00022166
83 2 7.67051 4.62057 2.32027 -0.00432334 -0.0027872 0.00774404
84 2 6.61922 5.62659 11.7455 0.00805842 0.00862509 -0.00281576
85 1 9.80386 4.10785 11.328 -0.00189412 -0.00109896 0.00138193
86 2 9.25583 4.88097 10.9728 -0.0164547 0.025572 -0.00420673
87 2 11.4308 4.4866 10.4759 -0.000830811 0.00193847 0.00463778
88 1 7.64806 12.5167 6.11076 0.00795295 -0.00194039 -0.00921712
89 2 6.43417 12.5528 6.90045 -0.00192974 -0.00881428 -0.0145913
90 2 7.83691 13.5473 6.03776 0.0257887 0.0140871 0.0067838
91 1 5.96664 6.46617 6.34311 -0.00574836 0.00208486 0.00152332
92 2 4.12106 7.72423 6.31775 0.0230971 -0.00962434 -0.0170201
93 2 5.48314 5.90506 6.94615 0.00589551 0.00265452 -0.0200336
94 1 4.10956 4.68781 7.71778 0.00382988 0.000545391 0.00214496
95 2 3.51074 4.71484 8.47842 -0.0243128 0.00905302 -0.00490908
96 2 5.66668 6.16133 5.43382 -0.0112099 0.00667817 0.023603
ITEM: TIMESTEP
2
ITEM: NUMBER OF ATOMS
96
ITEM: BOX BOUNDS pp pp pp
2.9236100000000000e+00 1.2773600000000000e+01
4.0306300000000004e+00 1.3880599999999999e+01
2.1372399999999998e+00 1.1987200000000000e+01
ITEM: ATOMS id type x y z vx vy vz
1 1 7.29431 12.6573 3.21561 -0.000744864 -0.00198763 -0.00336052
2 2 6.5877 12.1382 2.8425 0.00257623 0.00927171 -0.011159
3 2 9.21824 13.1924 11.1997 0.0130597 -0.0225604 -0.00441001
4 1 12.4168 10.1032 2.29989 0.000680742 0.00218539 0.00496414
5 2 11.5867 10.6333 11.8307 0.00715366 -0.00915255 -0.00477519
6 2 12.0871 9.36963 2.80594 -0.0129585 0.0202574 -0.0144335
7 1 12.1892 7.72883 3.97652 -0.000430234 -0.00243535 -0.00601197
8 2 11.3575 7.2267 4.08517 -0.0217641 0.0117006 0.016039
9 2 8.01386 8.41484 8.19595 0.00187717 -0.0124113 -0.00213231
10 1 7.40897 7.84964 8.74679 -0.00521198 -0.0109075 -0.000921796
11 2 6.90786 7.51795 8.0226 -0.030908 0.0158439 -0.0194869
12 2 6.69112 9.24328 9.27927 0.0118155 -0.0201744 0.00833896
13 1 5.74682 8.65491 2.26799 -0.00530625 -0.00446912 -0.000525226
14 2 6.08275 8.86736 11.2891 0.00243201 -0.00815163 0.0200287
15 2 5.48972 7.78988 2.21484 0.00835859 0.0436654 0.0153574
16 1 9.72683 8.01681 10.9863 0.00118666 0.00148267 0.00395536
17 2 9.67884 7.55933 11.8943 0.0131177 -0.00274808 -0.0033772
18 2 8.81335 7.83003 10.6921 0.00363999 -0.0211383 -0.0219179
19 1 4.76626 5.72383 11.478 -0.00101911 -0.00330784 -0.000719976
20 2 4.53704 5.53965 2.5842 -0.00429051 0.00172994 -0.0176996
21 2 11.3515 8.89927 10.1822 0.0262865 0.0157515 -0.0228843
22 1 9.96554 10.8104 11.6157 -0.00239438 -0.00215085 0.000144146
23 2 9.69448 10.7705 2.72335 0.0187237 0.0149967 -0.0103515
24 2 9.83936 9.90917 11.3663 -0.00573458 0.0188632 -0.00564626
25 1 3.40557 8.35653 6.35613 -0.00431558 5.44322e-05 0.00287998
26 2 3.78423 9.23165 6.41042 0.00152388 0.0224457 -0.0219346
27 2 3.51967 6.51964 4.01106 0.0152874 0.0229606 0.00723103
28 1 9.51707 7.11651 4.23065 0.00329731 0.00880593 -0.00680878
29 2 9.15459 6.84433 5.0562 0.00212297 0.00216591 -0.0031878
30 2 9.21497 8.03261 4.09523 0.00651097 0.0077985 -0.00695801
31 1 3.7808 11.2673 5.77324 0.000299588 -0.000479469 0.00360362
32 2 3.33998 12.6842 5.22811 -0.0195283 0.0139377 -0.0293325
33 2 4.35442 11.1114 4.98062 0.00224963 0.0120766 0.00892593
34 1 7.7669 5.03071 9.06659 -0.000273012 -0.00023236 0.00703485
35 2 7.98839 4.07015 9.20582 0.00692762 -0.0237225 -0.000890068
36 2 7.5874 5.47943 9.90729 -0.0281365 0.00128078 -0.0106022
37 1 8.02563 12.0392 10.1425 0.000970078 0.00793704 -0.00145577
38 2 9.21188 12.076 8.97145 0.0304603 0.00412962 0.00899762
39 2 8.59439 11.6461 10.8205 -0.00363403 -0.0143777 -0.00307962
40 1 12.6521 13.6016 5.27791 0.003669 0.00168679 0.00125831
41 2 3.61363 5.01237 4.37848 -0.00966841 -0.00306829 -0.0118072
42 2 11.763 13.3034 5.03851 0.0061652 -0.00438792 0.0117883
43 1 4.19281 5.80813 4.21594 0.00148122 0.00582747 -0.000896566
44 2 12.3575 8.19089 4.80551 0.00130657 -0.0318134 -0.00195669
45 2 7.36066 12.4274 4.14732 -0.0112087 -0.0460411 -0.0118
46 1 9.47534 12.3574 8.03932 -0.00560222 -0.00183467 0.00185289
47 2 8.28587 12.2273 6.8305 -0.00534501 -0.0313916 0.020493
48 2 10.2642 11.7913 7.76106 0.0016812 0.00667377 -0.00239226
49 1 10.4471 6.70432 8.5288 -0.00110535 -0.000523718 0.00248867
50 2 9.46718 6.48565 8.524 0.0130669 0.00855512 -0.0197123
51 2 10.423 7.31333 9.31339 0.00514388 -0.0128074 0.0055841
52 1 9.20344 10.3426 4.41004 0.00312379 -0.00415996 -0.00123605
53 2 8.94381 10.0602 5.29138 -0.0211626 0.00551176 0.00289438
54 2 8.93539 11.2469 4.33592 -0.0141765 0.00665991 -0.0142859
55 1 4.85927 11.0298 3.28751 0.00773929 0.0010569 0.00169631
56 2 5.22207 10.1816 2.98426 -0.00238402 -0.00190959 0.00176241
57 2 3.93323 10.9829 2.98132 -0.00566703 0.0228321 -0.0192981
58 1 6.2311 10.131 9.4623 -0.000340239 0.00336761 -0.000253333
59 2 5.02823 13.1092 7.81728 0.00262493 -0.0109676 -0.0114849
60 2 7.34588 11.3107 9.85059 0.0236407 -0.00324025 0.0221083
61 1 8.29161 5.29019 6.41369 -0.000537973 -0.00141253 0.00367451
62 2 8.5723 5.46602 7.36004 -0.0251493 0.0203375 -0.0126849
63 2 7.50562 5.7907 6.20007 0.00888911 -0.00965319 -0.0100374
64 1 5.47078 12.2297 7.56141 0.00172954 0.000623657 -0.00606902
65 2 4.61945 11.6694 6.60358 0.00488142 0.00714199 -0.0298311
66 2 3.47677 4.52734 6.93949 0.0253852 -0.00651689 0.0243442
67 1 11.6288 10.5992 7.45934 0.00148914 -0.00441558 0.00129342
68 2 12.3281 10.4522 6.76883 0.00209984 -0.0128454 0.0191295
69 2 11.8785 9.99281 8.18367 0.027051 0.0342101 0.00572262
70 1 10.0068 13.3156 4.22784 0.00466981 0.00140169 0.00497197
71 2 9.83268 13.6564 3.31467 0.00641993 0.000357454 0.00592441
72 2 9.16701 13.4436 4.62205 -0.0269831 -0.0123597 0.000489954
73 1 9.32056 9.30748 7.03958 0.00247102 -0.00339966 -0.00254259
74 2 9.76168 8.48352 6.8691 0.00820683 -0.00187773 0.0147355
75 2 10.0481 9.98677 7.226 -0.00801551 -0.0161186 0.01047
76 1 12.1987 4.92145 9.90547 0.000319222 0.00212032 0.000939594
77 2 11.7208 5.40779 9.23336 0.00756311 0.0153696 -0.00723612
78 2 3.99338 5.6012 10.9126 -0.0190733 -0.0108995 -0.0133832
79 1 12.1699 8.88063 9.6844 -0.00671095 -0.00657779 0.00331746
80 2 3.00765 9.18651 10.3182 -0.0321361 0.0150781 0.02032
81 2 6.05072 10.5162 8.62101 -0.0149918 0.0191667 0.0154825
82 1 7.59264 5.49367 11.6739 -0.00287991 0.00508772 0.000116495
83 2 7.66874 4.61992 2.32346 -0.00282881 0.000419529 0.00489996
84 2 6.62346 5.63134 11.7437 0.00847233 0.0103956 -0.00458657
85 1 9.8029 4.10739 11.3287 -0.00200495 -0.000730888 0.00115993
86 2 9.24834 4.89262 10.9714 -0.0131866 0.0199996 -0.000926387
87 2 11.4324 4.48862 10.4768 0.00682503 0.00615667 -0.000872212
88 1 7.65203 12.5159 6.10607 0.00793959 -0.00158524 -0.00949976
89 2 6.43082 12.5476 6.89467 -0.0111812 -0.011745 -0.00868072
90 2 7.84966 13.5544 6.04153 0.025142 0.0134267 0.00850847
91 1 5.96373 6.46726 6.34377 -0.00583469 0.00232004 0.00114846
92 2 4.13319 7.71963 6.30924 0.0244561 -0.00798315 -0.0169349
93 2 5.4857 5.90584 6.9365 0.00398571 7.76648e-05 -0.0177911
94 1 4.11141 4.68807 7.71873 0.00355342 0.000465328 0.00174217
95 2 3.49863 4.71932 8.47657 -0.0236861 0.00887342 -0.00267636
96 2 5.66093 6.16507 5.44672 -0.0118675 0.0081495 0.027019
ITEM: TIMESTEP
3
ITEM: NUMBER OF ATOMS
96
ITEM: BOX BOUNDS pp pp pp
2.9236100000000000e+00 1.2773600000000000e+01
4.0306300000000004e+00 1.3880599999999999e+01
2.1372399999999998e+00 1.1987200000000000e+01
ITEM: ATOMS id type x y z vx vy vz
1 1 7.29398 12.6564 3.21392 -0.000560734 -0.00180396 -0.00339699
2 2 6.58861 12.1425 2.83748 0.000929608 0.00807191 -0.00918603
3 2 9.22524 13.1817 11.1975 0.0150262 -0.019953 -0.00423053
4 1 12.4171 10.1043 2.30231 0.00063369 0.0024632 0.00471633
5 2 11.5913 10.6283 11.8287 0.0108228 -0.0105525 -0.00322937
6 2 12.0806 9.37908 2.79925 -0.0131819 0.0167906 -0.0117826
7 1 12.189 7.7276 3.97341 -0.000479924 -0.00250103 -0.00641884
8 2 11.3459 7.23251 4.09337 -0.0244114 0.0115931 0.0163832
9 2 8.01511 8.40844 8.19582 0.00299893 -0.0133927 0.00169769
10 1 7.40645 7.84426 8.7463 -0.00488973 -0.0105951 -0.00111341
11 2 6.89109 7.52473 8.01251 -0.0355891 0.0116672 -0.0201145
12 2 6.69697 9.23308 9.28336 0.0111481 -0.0198622 0.00780533
13 1 5.7442 8.65278 2.26787 -0.00513671 -0.00388671 9.69967e-05
14 2 6.08449 8.86375 11.2971 0.00501025 -0.00586637 0.0108462
15 2 5.493 7.80895 2.22207 0.00392407 0.0300197 0.0136274
16 1 9.72733 8.01748 10.9884 0.000802039 0.00119268 0.00446109
17 2 9.68579 7.55895 11.8907 0.0144958 0.00109602 -0.0106568
18 2 8.81601 7.8197 10.681 0.00726946 -0.0201131 -0.0221648
19 1 4.7658 5.7222 11.4776 -0.000875616 -0.0032175 -0.00089057
20 2 4.53443 5.54056 2.57524 -0.00621609 0.00181482 -0.0176668
21 2 11.3647 8.90704 10.1712 0.0247148 0.0152733 -0.0207687
22 1 9.96432 10.8093 11.6158 -0.00246928 -0.00183317 0.000247786
23 2 9.70401 10.7786 2.71834 0.0191611 0.0172373 -0.00912194
24 2 9.83633 9.91666 11.3623 -0.00654319 0.0105005 -0.0104299
25 1 3.40339 8.35653 6.35757 -0.00432382 -5.4194e-05 0.002876
26 2 3.78546 9.24283 6.39923 0.00298723 0.0214184 -0.0229133
27 2 3.52731 6.53216 4.01474 0.0152524 0.0267938 0.00751499
28 1 9.51875 7.12096 4.22717 0.00340818 0.00897043 -0.00708506
29 2 9.15529 6.8453 5.05506 0.000800582 0.00185291 -0.00160483
30 2 9.21833 8.03601 4.09238 0.00686628 0.00592568 -0.00439753
31 1 3.78112 11.2671 5.77508 0.000990416 -0.000375451 0.00378539
32 2 3.33038 12.6916 5.2141 -0.0183457 0.0154647 -0.0266385
33 2 4.35511 11.1173 4.98533 0.000469027 0.0114314 0.0095083
34 1 7.76682 5.03054 9.07002 -4.069e-05 -0.000525432 0.00666421
35 2 7.99144 4.05954 9.20584 0.00509466 -0.0179356 0.000997175
36 2 7.57329 5.47954 9.90256 -0.0283072 -0.000895369 -0.00812316
37 1 8.02605 12.0432 10.1417 0.000715036 0.00790832 -0.00161517
38 2 9.22707 12.078 8.97559 0.0301179 0.00394676 0.00766831
39 2 8.59266 11.6382 10.8194 -0.00312936 -0.0170389 -0.00121048
40 1 12.6539 13.6024 5.27853 0.00374209 0.00142821 0.00120204
41 2 3.60908 5.01017 4.37315 -0.00831621 -0.00512341 -0.00965136
42 2 11.7652 13.3021 5.0442 0.00230607 -0.000763377 0.010967
43 1 4.19355 5.811 4.21547 0.0014274 0.00565869 -0.000984703
44 2 12.3586 8.17533 4.80588 0.00331794 -0.0300737 0.00367265
45 2 7.35453 12.4042 4.14101 -0.0131462 -0.0467042 -0.0133258
46 1 9.47263 12.3565 8.0402 -0.00525499 -0.00200049 0.00167814
47 2 8.28389 12.2112 6.84159 -0.00315896 -0.032372 0.0230309
48 2 10.2639 11.7955 7.76052 -0.00292041 0.0101384 9.26189e-05
49 1 10.4464 6.70407 8.53013 -0.00174364 -0.000481009 0.00278667
50 2 9.47537 6.48981 8.51373 0.0190204 0.00797856 -0.0212138
51 2 10.4266 7.30638 9.3152 0.00905221 -0.0147709 0.00193961
52 1 9.205 10.3405 4.40938 0.00311165 -0.00439038 -0.00138193
53 2 8.9333 10.063 5.29345 -0.0207073 0.00601007 0.00492435
54 2 8.92807 11.251 4.32927 -0.0148739 0.0089804 -0.0122813
55 1 4.86316 11.0304 3.2884 0.00776644 0.00129137 0.00185077
56 2 5.22161 10.1799 2.98512 0.00028766 -0.00461334 0.00175229
57 2 3.92938 10.9945 2.97141 -0.00876707 0.0238017 -0.0200652
58 1 6.23095 10.1327 9.46225 -0.000238834 0.00330172 5.70529e-05
59 2 5.02962 13.1034 7.81087 0.00283266 -0.0117725 -0.0139902
60 2 7.35804 11.3093 9.86196 0.0244026 -0.0024708 0.0228996
61 1 8.29152 5.28939 6.41553 0.000175547 -0.00178088 0.00362642
62 2 8.55861 5.47574 7.35311 -0.029231 0.0185572 -0.0141797
63 2 7.50857 5.7869 6.19535 0.00264259 -0.00546728 -0.00911299
64 1 5.47177 12.23 7.55833 0.00222298 0.000730917 -0.00623852
65 2 4.61998 11.6726 6.58716 -0.00303812 0.00562415 -0.0356815
66 2 3.49063 4.52406 6.95232 0.0294561 -0.0067022 0.0260149
67 1 11.6296 10.597 7.45999 0.00156348 -0.00435111 0.00131918
68 2 12.3288 10.4462 6.77828 0.00125808 -0.0111391 0.018196
69 2 11.8922 10.0095 8.18714 0.0273886 0.0323596 0.00860194
70 1 10.0092 13.3163 4.23026 0.00470223 0.00146832 0.00474303
71 2 9.83656 13.6563 3.31788 0.00909122 -0.000715595 0.00687641
72 2 9.15283 13.4374 4.62331 -0.0286717 -0.0126895 0.00398564
73 1 9.32177 9.30583 7.0383 0.00233572 -0.00322554 -0.00257415
74 2 9.7663 8.48233 6.87662 0.0102598 -0.00303302 0.0152969
75 2 10.0435 9.97781 7.23093 -0.00977827 -0.0192485 0.00936272
76 1 12.1987 4.92242 9.90606 -9.84304e-05 0.00178431 0.00138304
77 2 11.724 5.41614 9.22954 0.00552051 0.0177911 -0.0076893
78 2 3.98351 5.59542 10.9063 -0.0196691 -0.0120767 -0.0115237
79 1 12.1666 8.87738 9.68605 -0.00637653 -0.00643886 0.00324674
80 2 2.99053 9.19392 10.3282 -0.0358173 0.0145529 0.01946
81 2 6.04272 10.5265 8.62781 -0.0168268 0.0216927 0.0117378
82 1 7.59115 5.49614 11.674 -0.00303378 0.00479262 0.000457613
83 2 7.66768 4.62099 2.32517 -0.00146709 0.00395971 0.00186911
84 2 6.6277 5.63698 11.741 0.00805811 0.0121948 -0.00621382
85 1 9.80186 4.10712 11.3292 -0.00217066 -0.000325316 0.000912884
86 2 9.24265 4.90097 10.9718 -0.00934966 0.0126421 0.00290867
87 2 11.4377 4.49276 10.475 0.0139086 0.0102954 -0.00628265
88 1 7.656 12.5152 6.10126 0.00796161 -0.00120146 -0.00967172
89 2 6.42299 12.541 6.89177 -0.0197691 -0.0144422 -0.00307668
90 2 7.86205 13.5607 6.04626 0.0243412 0.011193 0.0105767
91 1 5.9608 6.46849 6.34426 -0.00585552 0.0026245 0.00081486
92 2 4.14552 7.71625 6.30081 0.0239777 -0.00479613 -0.0166924
93 2 5.48713 5.90514 6.92836 0.00150152 -0.00320287 -0.0140821
94 1 4.11312 4.68828 7.71952 0.00327626 0.000403135 0.00147939
95 2 3.48705 4.72371 8.47574 -0.0221599 0.00867964 -0.000883059
96 2 5.65481 6.16948 5.46084 -0.0127308 0.00931044 0.0283158
ITEM: TIMESTEP
4
ITEM: NUMBER OF ATOMS
96
ITEM: BOX BOUNDS pp pp pp
2.9236100000000000e+00 1.2773600000000000e+01
4.0306300000000004e+00 1.3880599999999999e+01
2.1372399999999998e+00 1.1987200000000000e+01
ITEM: ATOMS id type x y z vx vy vz
1 1 7.29375 12.6555 3.21221 -0.000375823 -0.00163428 -0.00340071
2 2 6.58862 12.1462 2.83331 -0.00100789 0.00676649 -0.00779178
3 2 9.23327 13.1725 11.1954 0.0170838 -0.0164728 -0.00411024
4 1 12.4174 10.1056 2.3046 0.000640432 0.00278602 0.00444408
5 2 11.5975 10.6228 11.8275 0.0139834 -0.0111343 -0.00215684
6 2 12.0739 9.38642 2.79415 -0.0135655 0.0119861 -0.00817813
7 1 12.1888 7.72633 3.9701 -0.000613076 -0.00260618 -0.00678803
8 2 11.3331 7.23829 4.10156 -0.0262351 0.0116259 0.0160274
9 2 8.01685 8.40145 8.19765 0.0038726 -0.0146675 0.00558083
10 1 7.40408 7.83904 8.74568 -0.00464116 -0.0102829 -0.00139669
11 2 6.87227 7.52962 8.00248 -0.039017 0.00832812 -0.0192112
12 2 6.70226 9.22342 9.28707 0.00960391 -0.0180354 0.00684522
13 1 5.74168 8.65102 2.26809 -0.00492194 -0.00307884 0.000790033
14 2 6.08776 8.86149 11.3 0.00824037 -0.00300129 0.000411588
15 2 5.49365 7.8199 2.22847 -0.00185452 0.0122036 0.0120102
16 1 9.72763 8.01801 10.9908 0.00040483 0.00092146 0.00489233
17 2 9.69334 7.56043 11.8836 0.0154962 0.00454752 -0.0172006
18 2 8.82062 7.80991 10.6699 0.0112993 -0.0190583 -0.0218998
19 1 4.76539 5.72061 11.4771 -0.000815578 -0.00313813 -0.00117765
20 2 4.53083 5.54147 2.56653 -0.00825162 0.00176582 -0.0166581
21 2 11.3763 8.91455 10.1615 0.0195741 0.0147129 -0.0173236
22 1 9.96307 10.8085 11.6159 -0.00251281 -0.00143578 0.000272108
23 2 9.71364 10.7877 2.71423 0.019201 0.0190114 -0.00686977
24 2 9.83282 9.91967 11.3559 -0.00758051 0.00138655 -0.0149583
25 1 3.40125 8.35647 6.35901 -0.00417359 -0.00013902 0.00286043
26 2 3.78722 9.25307 6.38751 0.00362111 0.0187547 -0.0239861
27 2 3.53492 6.54643 4.01858 0.0151694 0.0298223 0.0078888
28 1 9.52048 7.12548 4.22356 0.00351416 0.00909853 -0.00732698
29 2 9.15539 6.84618 5.0546 -0.000275104 0.00179534 -0.000563124
30 2 9.22184 8.03853 4.09083 0.00708866 0.00438704 -0.00182704
31 1 3.78179 11.267 5.77702 0.00169217 -0.000264519 0.00396998
32 2 3.32164 12.6996 5.20147 -0.0162224 0.0164815 -0.0238934
33 2 4.35489 11.1228 4.99013 -0.00131429 0.0104758 0.00913454
34 1 7.76686 5.03019 9.07326 0.00021331 -0.000896892 0.00626954
35 2 7.99348 4.05222 9.20682 0.00290138 -0.0108424 0.00292247
36 2 7.55909 5.47854 9.89917 -0.028477 -0.00314558 -0.00530699
37 1 8.02635 12.0471 10.1408 0.000517577 0.00783633 -0.00171176
38 2 9.242 12.0799 8.97912 0.0293886 0.0038207 0.00663666
39 2 8.59126 11.6291 10.8193 -0.00229632 -0.018783 0.000606756
40 1 12.6558 13.6031 5.27911 0.00379513 0.0011859 0.00112918
41 2 3.60531 5.00725 4.36883 -0.00659162 -0.00587343 -0.0077002
42 2 11.7653 13.3026 5.04947 -0.00210932 0.00320211 0.0101262
43 1 4.19424 5.81379 4.21496 0.00133734 0.00544732 -0.00106632
44 2 12.3609 8.16082 4.80919 0.00589049 -0.0278086 0.00953339
45 2 7.34751 12.3807 4.134 -0.0147526 -0.0469977 -0.014592
46 1 9.47008 12.3554 8.041 -0.00492326 -0.00215902 0.00149927
47 2 8.28272 12.1949 6.85353 -0.00218392 -0.0322014 0.0237876
48 2 10.2613 11.8014 7.76115 -0.00712229 0.0133448 0.00218957
49 1 10.4454 6.70384 8.53159 -0.00225552 -0.000455041 0.00302226
50 2 9.4862 6.49363 8.50279 0.0233526 0.00719194 -0.0224296
51 2 10.432 7.29856 9.31533 0.0126169 -0.0162289 -0.00102244
52 1 9.20655 10.3383 4.40866 0.00304294 -0.00453018 -0.0014697
53 2 8.9231 10.0662 5.29631 -0.0198569 0.0066812 0.00600872
54 2 8.92052 11.2559 4.32363 -0.0150126 0.00966436 -0.0102556
55 1 4.86703 11.0311 3.28936 0.00769086 0.00151215 0.00196298
56 2 5.22236 10.1769 2.98601 0.00241644 -0.00682036 0.00184595
57 2 3.92446 11.0067 2.96126 -0.00984087 0.0244452 -0.0202196
58 1 6.23086 10.1343 9.46236 -8.86967e-05 0.00315285 0.000371058
59 2 5.03107 13.0974 7.80329 0.00273804 -0.0117857 -0.0160546
60 2 7.37028 11.3082 9.87349 0.0239605 -0.00188123 0.0226964
61 1 8.29178 5.28841 6.41732 0.000856448 -0.00214506 0.00349446
62 2 8.54307 5.48458 7.34586 -0.0325046 0.0168113 -0.0139303
63 2 7.50826 5.78524 6.19096 -0.00390378 -0.00125776 -0.0086613
64 1 5.47301 12.2304 7.55517 0.00275803 0.000794405 -0.00641348
65 2 4.61641 11.675 6.5679 -0.0114438 0.00381478 -0.0410746
66 2 3.50623 4.52064 6.96551 0.0322544 -0.00715828 0.025701
67 1 11.6304 10.5948 7.46066 0.00162242 -0.00425571 0.00134995
68 2 12.3293 10.4411 6.78703 0.000779109 -0.00940361 0.0164261
69 2 11.9059 10.0252 8.19227 0.027543 0.0300994 0.0122176
70 1 10.0115 13.317 4.23258 0.00459901 0.00155131 0.0045779
71 2 9.84177 13.6557 3.32154 0.0117066 -0.00172628 0.00771475
72 2 9.13833 13.4309 4.62604 -0.0282092 -0.01335 0.00637806
73 1 9.32289 9.30426 7.03701 0.0021465 -0.00310738 -0.00261717
74 2 9.77194 8.48049 6.8844 0.0121965 -0.00442004 0.0158072
75 2 10.0383 9.96752 7.23537 -0.0108389 -0.0213357 0.0085271
76 1 12.1986 4.92324 9.90686 -0.000472261 0.00150679 0.0017541
77 2 11.7263 5.42558 9.22567 0.00367065 0.0196788 -0.00739712
78 2 3.97371 5.58912 10.9011 -0.0188563 -0.0129592 -0.00882672
79 1 12.1636 8.87419 9.68765 -0.00587537 -0.00629862 0.00310242
80 2 2.97183 9.20106 10.3377 -0.0383377 0.0140327 0.0184487