ITEM: TIMESTEP
0
ITEM: NUMBER OF ATOMS
96
ITEM: BOX BOUNDS pp pp pp
2.9236100000000000e+00 1.2773600000000000e+01
4.0306300000000004e+00 1.3880599999999999e+01
2.1372399999999998e+00 1.1987200000000000e+01
ITEM: ATOMS id type x y z vx vy vz
1 1 7.29644 12.662 3.22195 0.00132192 0.00270315 0.00287996
2 2 6.57864 12.1165 2.87616 -0.0053077 -0.0114491 0.0235771
3 2 9.19763 13.2391 11.2096 -0.00892443 0.0198884 0.00567855
4 1 12.415 10.0994 2.28933 -0.00112046 -0.00186179 -0.00539789
5 2 11.5879 10.642 11.8486 0.00751046 -0.00124274 0.0135392
6 2 12.1139 9.32658 2.83737 0.0144707 -0.0181232 0.0136818
7 1 12.1904 7.73381 3.98699 0.000905301 0.00269906 0.00459271
8 2 11.3868 7.20326 4.05892 0.00693651 -0.0109986 -0.00861945
9 2 8.01636 8.43804 8.21316 0.0047885 0.0114479 0.0134023
10 1 7.42091 7.87258 8.7484 0.00670759 0.0119096 0.000816798
11 2 6.94659 7.46602 8.05191 0.00830811 -0.0359066 0.00892156
12 2 6.67073 9.27457 9.26314 -0.00649992 0.00744779 -0.00681797
13 1 5.7578 8.66414 2.27041 0.00557362 0.00395348 0.00131934
14 2 6.08089 8.88754 11.2291 -0.00249031 0.0102399 -0.0319532
15 2 5.46696 7.68614 2.17835 -0.00998626 -0.0449943 -0.019799
16 1 9.72322 8.01284 10.9806 -0.00223009 -0.0023333 -0.0017774
17 2 9.65998 7.57967 11.8729 -0.00535556 0.0161787 -0.022117
18 2 8.81473 7.87551 10.731 0.00168213 0.0238044 0.0154431
19 1 4.76944 5.73089 11.4796 0.00234059 0.00377992 0.0011831
20 2 4.53909 5.53752 2.61358 -0.00166461 -1.99098e-05 0.00963227
21 2 11.3157 8.86702 10.2266 -0.00183856 -0.0158189 0.0178762
22 1 9.96972 10.8149 11.6162 0.00163096 0.0019255 0.000805775
23 2 9.66181 10.7515 2.74049 -0.0127713 -0.00356568 0.0033809
24 2 9.84991 9.85104 11.3603 0.0058403 -0.0319784 -0.00989676
25 1 3.413 8.35593 6.35035 0.00268016 -0.000507048 -0.00293104
26 2 3.79229 9.1944 6.45168 0.0111945 -0.010672 0.0199755
27 2 3.48987 6.49169 3.99778 -0.013842 -0.0051734 -0.00568452
28 1 9.51095 7.09967 4.24308 -0.00282631 -0.0080439 0.00565621
29 2 9.14432 6.83718 5.07091 -0.0080021 -0.00550006 0.0114864
30 2 9.20384 8.00917 4.11861 -0.00461912 -0.0150148 0.0158441
31 1 3.78278 11.2686 5.76685 0.00217709 0.000686224 -0.00268706
32 2 3.37578 12.6664 5.29561 0.0127809 -0.0020971 0.0367804
33 2 4.3443 11.0864 4.96911 -0.00664316 -0.0123722 -0.00204238
34 1 7.76816 5.03083 9.05131 0.000872321 0.000283847 -0.00808877
35 2 7.97081 4.12663 9.21461 -0.00889715 0.0256271 0.00747694
36 2 7.64288 5.46928 9.93475 0.0272204 -0.00813024 0.0148605
37 1 8.02241 12.0234 10.1444 -0.00230176 -0.00780137 0.000459052
38 2 9.15134 12.0666 8.94754 -0.0297288 -0.00543564 -0.0146339
39 2 8.60124 11.6597 10.8333 0.00221321 -0.00198448 0.00889744
40 1 12.6451 13.5973 5.27527 -0.00339438 -0.00263018 -0.00133969
41 2 3.6358 5.00345 4.41177 0.0116319 -0.0134753 0.0216314
42 2 11.742 13.3236 5.01241 -0.0115078 0.0143408 -0.0138246
43 1 4.18981 5.79614 4.2173 -0.00149715 -0.00601863 0.000423939
44 2 12.3585 8.25484 4.82591 0.000405233 0.0285873 0.0148276
45 2 7.3738 12.5148 4.16416 0.00161938 0.0406519 0.00533158
46 1 9.48778 12.3606 8.03499 0.00667435 0.00146885 -0.00243402
47 2 8.31115 12.2801 6.80826 0.0209015 0.0199976 -8.76293e-05
48 2 10.2445 11.7901 7.77621 -0.0154732 0.00354179 0.0120828
49 1 10.4463 6.70553 8.52519 -0.00190587 0.000647876 -0.00115523
50 2 9.47054 6.46719 8.55603 0.0164729 -0.00974897 0.0120702
51 2 10.4296 7.32982 9.28586 0.0117113 0.00413646 -0.0214219
52 1 9.19741 10.3496 4.41162 -0.00285301 0.00267482 0.000285946
53 2 8.98616 10.0501 5.29828 0.0208859 -0.0048204 0.0104717
54 2 8.95829 11.2516 4.37238 0.00825306 0.0131914 0.0221681
55 1 4.84448 11.0286 3.28489 -0.00689592 -0.000273385 -0.0009217
56 2 5.23915 10.1739 2.98047 0.0142878 -0.00862108 -0.00187627
57 2 3.92217 10.942 3.01381 -0.0184883 -0.0180611 0.0125182
58 1 6.2318 10.1247 9.46375 0.000187716 -0.00271087 0.000970426
59 2 5.02471 13.1238 7.82869 -0.000852958 0.002636 -0.000182348
60 2 7.30887 11.3213 9.81557 -0.0111266 0.00755822 -0.0109194
61 1 8.29543 5.29172 6.40657 0.00313473 0.000242687 -0.0033607
62 2 8.60186 5.41861 7.36962 0.00318742 -0.026748 -0.00576396
63 2 7.46947 5.82321 6.22762 -0.0232318 0.0203724 0.0189876
64 1 5.46897 12.2291 7.57296 -0.000220735 0.000119737 0.0055463
65 2 4.58227 11.6505 6.63716 -0.0304878 -0.0115089 0.00259253
66 2 3.44779 4.54066 6.90824 -0.00270707 0.00692996 -0.00383505
67 1 11.6262 10.6079 7.45696 -0.00103267 0.00415738 -0.00100532
68 2 12.3176 10.4838 6.73361 -0.00956032 0.0179717 -0.0132732
69 2 11.827 9.9223 8.17599 -0.0240123 -0.0334144 -0.00567235
70 1 9.99842 13.3128 4.21672 -0.00348445 -0.00138835 -0.00615862
71 2 9.82976 13.6516 3.30651 0.00273562 -0.00414385 -0.00253062
72 2 9.20224 13.4696 4.64076 0.00555882 0.0146497 0.0201417
73 1 9.31538 9.31513 7.04456 -0.00262786 0.00422086 0.0024239
74 2 9.75301 8.4853 6.84224 -0.00100509 0.00107188 -0.0118971
75 2 10.0543 10.0022 7.19973 -0.00195241 -0.00118963 -0.0157762
76 1 12.1963 4.91573 9.90552 -0.00193181 -0.00354034 0.000891366
77 2 11.6975 5.38936 9.24199 -0.0151185 -0.00253906 0.000428873
78 2 4.01943 5.61649 10.9403 0.00358599 0.00382758 0.011766
79 1 12.1835 8.89426 9.6779 0.00635954 0.00698521 -0.00307804
80 2 3.05228 9.1549 10.2763 0.0119031 -0.0159844 -0.0201827
81 2 6.07156 10.4908 8.57799 0.00553255 -0.00597215 -0.0246341
82 1 7.59733 5.48257 11.6749 0.00163645 -0.00581469 0.00110495
83 2 7.68061 4.62986 2.30351 0.00920223 0.00787563 -0.0135634
84 2 6.61035 5.61735 11.7455 -0.00275931 -0.00393024 -0.00284264
85 1 9.80672 4.11012 11.3256 0.00211125 0.00174692 -0.00173441
86 2 9.28508 4.83761 10.9837 0.0205057 -0.0271305 0.00833907
87 2 11.4491 4.49221 10.4578 0.0223442 0.00817669 -0.0178327
88 1 7.63607 12.5203 6.12373 -0.00801584 0.00277948 0.00801079
89 2 6.41505 12.5589 6.93606 -0.0273599 -0.00080757 0.032648
90 2 7.79704 13.5289 6.03036 -0.0273202 -0.00869525 -0.00361103
91 1 5.97485 6.46336 6.33998 0.00509169 -0.0017689 -0.00259301
92 2 4.0951 7.73713 6.34312 -0.00875253 0.00476635 0.0167057
93 2 5.47234 5.89793 6.97624 -0.00706803 -0.00531473 0.0173191
94 1 4.10326 4.68679 7.71334 -0.00450037 -0.000817837 -0.0038749
95 2 3.54603 4.70086 8.4916 0.0214877 -0.00959764 0.0127422
96 2 5.68225 6.15522 5.4112 0.00945903 -0.00136717 -0.00468445
ITEM: TIMESTEP
1
ITEM: NUMBER OF ATOMS
96
ITEM: BOX BOUNDS pp pp pp
2.9236100000000000e+00 1.2773600000000000e+01
4.0306300000000004e+00 1.3880599999999999e+01
2.1372399999999998e+00 1.1987200000000000e+01
ITEM: ATOMS id type x y z vx vy vz
1 1 7.29713 12.6634 3.22334 0.00140712 0.00285089 0.00268422
2 2 6.576 12.1108 2.88887 -0.00511122 -0.0112124 0.0272674
3 2 9.19319 13.2482 11.2126 -0.00905577 0.0158324 0.00617421
4 1 12.4144 10.0984 2.28664 -0.00118794 -0.00199887 -0.00534332
5 2 11.5924 10.6407 11.8559 0.00988142 -0.00388615 0.0157294
6 2 12.1213 9.31837 2.84365 0.0152756 -0.0142439 0.0111123
7 1 12.1909 7.7352 3.98922 0.00111951 0.00287966 0.00437424
8 2 11.3893 7.19797 4.05531 0.0032823 -0.00992356 -0.00567188
9 2 8.01921 8.44378 8.22025 0.00659344 0.0115152 0.0145405
10 1 7.42434 7.87857 8.74882 0.00699277 0.012015 0.000836456
11 2 6.94958 7.44699 8.05573 0.00432377 -0.0396634 0.00678425
12 2 6.66811 9.27697 9.25997 -0.00390373 0.00196425 -0.00573923
13 1 5.76059 8.66596 2.27102 0.00557311 0.00326444 0.00104445
14 2 6.07916 8.89252 11.2137 -0.00477546 0.0095127 -0.0284824
15 2 5.46253 7.66586 2.16843 -0.00732246 -0.0346615 -0.0196241
16 1 9.72208 8.01165 10.9798 -0.00230867 -0.00237416 -0.00135536
17 2 9.65782 7.58828 11.8609 -0.00328172 0.0177128 -0.0249253
18 2 8.81531 7.88748 10.7381 4.70612e-06 0.0240158 0.0125798
19 1 4.77072 5.73281 11.4803 0.0027713 0.00391403 0.00150015
20 2 4.53798 5.53768 2.61761 -0.00265603 0.000677869 0.00636536
21 2 11.3174 8.85923 10.2347 0.00901814 -0.0152172 0.0142624
22 1 9.97046 10.8158 11.6167 0.00132266 0.00145531 0.0010869
23 2 9.65597 10.7505 2.74123 -0.0104824 -0.000629852 -0.000705706
24 2 9.853 9.8355 11.3547 0.00663442 -0.0290056 -0.0119839
25 1 3.41418 8.35566 6.34888 0.00200556 -0.000563533 -0.00297274
26 2 3.79888 9.19037 6.46165 0.0151035 -0.00538555 0.0199541
27 2 3.48317 6.49009 3.99512 -0.0127714 -0.00161393 -0.00478321
28 1 9.50957 7.09569 4.24585 -0.00271429 -0.00789428 0.0054394
29 2 9.14001 6.83415 5.0771 -0.00908382 -0.00664915 0.0129969
30 2 9.20163 8.00137 4.12697 -0.00425397 -0.0158902 0.0174616
31 1 3.784 11.2689 5.76558 0.00269587 0.000657062 -0.00235177
32 2 3.38119 12.6664 5.3142 0.00840089 0.00229831 0.0372589
33 2 4.34095 11.0803 4.96851 -0.0064454 -0.012102 -0.000615279
34 1 7.76862 5.03104 9.04723 0.000938148 0.000621828 -0.00820136
35 2 7.96653 4.13835 9.21867 -0.00798548 0.020214 0.00860936
36 2 7.65641 5.46493 9.94209 0.0268357 -0.00908817 0.0140834
37 1 8.02117 12.0195 10.1446 -0.00263451 -0.00773028 0.000202469
38 2 9.13655 12.0638 8.93995 -0.0294468 -0.00588559 -0.0155868
39 2 8.6021 11.6575 10.838 0.00108141 -0.0066417 0.00951327
40 1 12.6434 13.5959 5.2746 -0.00335874 -0.00278599 -0.00133164
41 2 3.64162 4.99555 4.4232 0.0116112 -0.0178417 0.0239601
42 2 11.7365 13.3311 5.00546 -0.0102159 0.015584 -0.0139176
43 1 4.18906 5.79314 4.21748 -0.00151321 -0.0059671 0.000273081
44 2 12.3585 8.26832 4.83349 -0.000502984 0.0247415 0.0148809
45 2 7.37398 12.5347 4.16652 -0.000837449 0.0388932 0.00431317
46 1 9.49115 12.3613 8.03374 0.0067666 0.00153399 -0.00254209
47 2 8.3226 12.2892 6.80961 0.0245341 0.0166535 0.00510327
48 2 10.2364 11.7921 7.78269 -0.0159707 0.00381958 0.0135498
49 1 10.4452 6.70585 8.52468 -0.00255211 0.000623059 -0.000919031
50 2 9.48045 6.46225 8.56158 0.0224788 -0.0100993 0.0101973
51 2 10.4365 7.3315 9.27434 0.0156337 0.00293899 -0.0241937
52 1 9.196 10.3508 4.4117 -0.0027865 0.00230023 5.12165e-05
53 2 8.99657 10.0477 5.30436 0.0208185 -0.00462552 0.0135189
54 2 8.96202 11.2596 4.38396 0.00682898 0.0182485 0.0241224
55 1 4.8411 11.0285 3.28447 -0.00662467 -0.000197066 -0.000761941
56 2 5.24688 10.1692 2.97957 0.0162504 -0.00977512 -0.00164841
57 2 3.91133 10.9332 3.01958 -0.0243224 -0.0171618 0.0106383
58 1 6.23186 10.1234 9.46424 2.84469e-05 -0.00235127 0.000922252
59 2 5.02435 13.1245 7.82791 -0.000707127 0.000178064 -0.00277669
60 2 7.30439 11.3253 9.81109 -0.00677419 0.0084935 -0.00689623
61 1 8.29713 5.29179 6.40492 0.00361332 6.47264e-05 -0.00326948
62 2 8.60193 5.4049 7.36528 -0.00279955 -0.02801 -0.0114222
63 2 7.45768 5.8336 6.23789 -0.0231359 0.0206752 0.022206
64 1 5.46893 12.2292 7.57571 4.80702e-05 0.000339483 0.00547826
65 2 4.56572 11.6445 6.63658 -0.03547 -0.012664 -0.00508115
66 2 3.44789 4.54415 6.908 0.00284908 0.00698453 0.00287028
67 1 11.6257 10.6099 7.45649 -0.000902306 0.00395331 -0.000852372
68 2 12.3122 10.493 6.72778 -0.0121794 0.0184902 -0.00976078
69 2 11.8153 9.90615 8.17254 -0.0227969 -0.0307153 -0.00862489
70 1 9.99678 13.3121 4.21357 -0.00309826 -0.0014432 -0.006391
71 2 9.83154 13.6494 3.30539 0.00416734 -0.00472169 -0.00201874
72 2 9.20345 13.4772 4.65214 -0.000238219 0.0158178 0.0249473
73 1 9.31407 9.31728 7.04576 -0.00263408 0.00435771 0.00236937
74 2 9.75285 8.48597 6.83651 0.000194126 0.00174735 -0.0109852
75 2 10.0527 10.0005 7.19154 -0.0040854 -0.00512732 -0.0168547
76 1 12.1953 4.91389 9.90605 -0.00219837 -0.00377447 0.00118213
77 2 11.6896 5.38893 9.24168 -0.0161412 0.000692685 -0.00154196
78 2 4.01978 5.61789 10.9457 -0.00227912 0.00175233 0.00972731
79 1 12.1866 8.89777 9.67639 0.00593869 0.00701862 -0.00299204
80 2 3.05698 9.14696 10.2665 0.00725275 -0.015611 -0.0187514
81 2 6.07371 10.4886 8.56569 0.00315086 -0.00289944 -0.0238062
82 1 7.59805 5.47965 11.6755 0.00121569 -0.00580109 0.00132299
83 2 7.68562 4.63384 2.29648 0.0108184 0.00744101 -0.0142086
84 2 6.60959 5.61572 11.7436 -0.00021349 -0.00268283 -0.00465137
85 1 9.80783 4.11101 11.3247 0.00239909 0.00174901 -0.00171285
86 2 9.29523 4.82499 10.9878 0.0195036 -0.0218678 0.00734411
87 2 11.4617 4.49684 10.4482 0.0273394 0.00973442 -0.0198769
88 1 7.63207 12.5217 6.12763 -0.00797835 0.00298758 0.00760763
89 2 6.39902 12.5577 6.95379 -0.0363052 -0.00413575 0.0379283
90 2 7.78326 13.5253 6.02872 -0.0278083 -0.00554865 -0.00299522
91 1 5.97732 6.46248 6.33861 0.00475927 -0.00174571 -0.00284687
92 2 4.09242 7.73858 6.35143 -0.00172113 0.000659609 0.0165387
93 2 5.469 5.89535 6.98414 -0.00599609 -0.00470117 0.0137504
94 1 4.10097 4.68636 7.71124 -0.00463549 -0.000896838 -0.00449879
95 2 3.55631 4.69601 8.49861 0.0194391 -0.00979614 0.015095
96 2 5.6868 6.15498 5.41072 0.00860239 0.000302793 0.00269702
ITEM: TIMESTEP
2
ITEM: NUMBER OF ATOMS
96
ITEM: BOX BOUNDS pp pp pp
2.9236100000000000e+00 1.2773600000000000e+01
4.0306300000000004e+00 1.3880599999999999e+01
2.1372399999999998e+00 1.1987200000000000e+01
ITEM: ATOMS id type x y z vx vy vz
1 1 7.29785 12.6649 3.22463 0.00146713 0.00298034 0.00246715
2 2 6.57353 12.1053 2.90343 -0.00469104 -0.010705 0.0309165
3 2 9.18857 13.2549 11.2158 -0.0095117 0.0107042 0.00677441
4 1 12.4138 10.0974 2.28399 -0.0011932 -0.00220915 -0.0052321
5 2 11.5978 10.6381 11.8643 0.0113203 -0.00607348 0.0176903
6 2 12.1292 9.31234 2.84848 0.0160924 -0.00965091 0.0080335
7 1 12.1915 7.73669 3.99136 0.00133842 0.0030824 0.00421544
8 2 11.3901 7.19334 4.05325 2.37846e-05 -0.0083258 -0.00248725
9 2 8.02295 8.44956 8.2277 0.0083582 0.0115415 0.0148569
10 1 7.4279 7.8846 8.74924 0.00720294 0.0120322 0.000835628
11 2 6.95091 7.42636 8.05869 0.00173405 -0.0421444 0.00562148
12 2 6.66683 9.27653 9.2574 -0.00124957 -0.00368736 -0.00446696
13 1 5.76337 8.6674 2.27145 0.00555823 0.00245525 0.000619555
14 2 6.07611 8.89705 11.2006 -0.00762473 0.00850769 -0.0230284
15 2 5.45964 7.65148 2.15873 -0.00397046 -0.0218611 -0.0189179
16 1 9.72091 8.01047 10.9792 -0.00231146 -0.00232256 -0.00104925
17 2 9.6567 7.59738 11.848 -0.00118313 0.018036 -0.0252078
18 2 8.81473 7.89953 10.7436 -0.0029168 0.024132 0.00918553
19 1 4.77221 5.7348 11.4811 0.00318626 0.00404604 0.00184075
20 2 4.53643 5.5382 2.61995 -0.0034467 0.00143534 0.00298778
21 2 11.3247 8.8518 10.2409 0.0202818 -0.014415 0.0103149
22 1 9.97104 10.8164 11.6173 0.000979538 0.00085468 0.0013439
23 2 9.65133 10.7509 2.73978 -0.00808186 0.00213709 -0.00515172
24 2 9.85654 9.82203 11.3483 0.00761022 -0.0238589 -0.0132407
25 1 3.41501 8.35537 6.34738 0.00133006 -0.000581207 -0.00302129
26 2 3.80739 9.18901 6.47163 0.0187277 -0.000323506 0.0199717
27 2 3.4771 6.49008 3.993 -0.0113277 0.00108562 -0.00352546
28 1 9.50824 7.09178 4.24852 -0.00261069 -0.00778204 0.00527928
29 2 9.13524 6.83053 5.08391 -0.00982369 -0.00784356 0.0139053
30 2 9.19959 7.99328 4.13607 -0.00400445 -0.0161356 0.0187681
31 1 3.78548 11.2693 5.7645 0.00316645 0.000587916 -0.00196235
32 2 3.38418 12.6687 5.33287 0.00324362 0.00715729 0.0370723
33 2 4.33785 11.0743 4.96849 -0.00557363 -0.011749 0.000267049
34 1 7.7691 5.03145 9.04311 0.000982093 0.00105034 -0.00823715
35 2 7.96282 4.14684 9.22322 -0.00669294 0.0130206 0.00938229
36 2 7.66972 5.46019 9.94883 0.0263493 -0.0096688 0.012477
37 1 8.01978 12.0157 10.1446 -0.00293473 -0.00764352 -2.43719e-05
38 2 9.12189 12.0607 8.93195 -0.0292386 -0.00635898 -0.0162655
39 2 8.60232 11.6531 10.8428 -0.000297001 -0.0112341 0.00969238
40 1 12.6417 13.5945 5.27394 -0.00333675 -0.00289092 -0.00131435
41 2 3.64741 4.98561 4.43573 0.0115741 -0.0214807 0.0260063
42 2 11.7318 13.3392 4.99849 -0.00820242 0.0163332 -0.0138868
43 1 4.1883 5.79017 4.21757 -0.00155794 -0.00589527 0.000114132
44 2 12.358 8.27958 4.84079 -0.00172495 0.0198334 0.013811
45 2 7.37296 12.5537 4.16847 -0.00315824 0.0370966 0.0037706
46 1 9.49455 12.3621 8.03245 0.00676845 0.00167974 -0.00263597
47 2 8.33568 12.2968 6.81336 0.0272131 0.0136537 0.00935457
48 2 10.2285 11.7939 7.78976 -0.0149079 0.00286835 0.0144231
49 1 10.4437 6.70615 8.52427 -0.00307542 0.000560128 -0.000769697
50 2 9.49302 6.45709 8.56623 0.0268533 -0.01064 0.00853797
51 2 10.4452 7.33276 9.26167 0.0192327 0.00256323 -0.0259444
52 1 9.19462 10.3519 4.41167 -0.00274938 0.00198373 -0.000137329
53 2 9.00698 10.0455 5.3118 0.0209125 -0.00426415 0.0157876
54 2 8.96512 11.2698 4.3965 0.00574385 0.0222259 0.0260191
55 1 4.83786 11.0284 3.28413 -0.00638184 -0.000194032 -0.000637907
56 2 5.2554 10.1641 2.97882 0.0173226 -0.0099036 -0.00122869
57 2 3.89785 10.9248 3.02445 -0.0288125 -0.0164965 0.00893618
58 1 6.23183 10.1223 9.46467 -0.000159786 -0.00194901 0.000766877
59 2 5.024 13.124 7.82591 -0.000843862 -0.00210479 -0.0049894
60 2 7.3021 11.3298 9.80867 -0.00249847 0.00910121 -0.00275512
61 1 8.29904 5.29178 6.4033 0.0040003 -6.94799e-05 -0.00322318
62 2 8.59906 5.3906 7.3582 -0.00846116 -0.0290836 -0.0164371
63 2 7.44633 5.84389 6.24983 -0.0215386 0.0199402 0.0255334
64 1 5.46902 12.2294 7.57844 0.0002687 0.000550389 0.00544617
65 2 4.5468 11.6378 6.63208 -0.0399535 -0.0140347 -0.0130114
66 2 3.45064 4.54764 6.91111 0.00770146 0.00691433 0.00940078
67 1 11.6253 10.6119 7.45611 -0.000783373 0.00370822 -0.000660937
68 2 12.3054 10.5023 6.72385 -0.0148281 0.0186103 -0.00583755
69 2 11.8042 9.89158 8.16737 -0.0213854 -0.0271218 -0.0124685
70 1 9.99532 13.3114 4.21033 -0.00275511 -0.0015107 -0.00654195
71 2 9.83393 13.6469 3.30449 0.00512547 -0.00507628 -0.00169062
72 2 9.202 13.4854 4.66571 -0.00483147 0.0169873 0.0287021
73 1 9.31275 9.31949 7.04693 -0.00265382 0.0044379 0.00229672
74 2 9.7532 8.48705 6.83125 0.00107377 0.00263609 -0.0100074
75 2 10.0502 9.99707 7.18288 -0.00572209 -0.00833916 -0.0176876
76 1 12.1941 4.91196 9.9067 -0.00236491 -0.00390764 0.00133914
77 2 11.6814 5.39005 9.24045 -0.0165772 0.00361306 -0.00318709
78 2 4.01715 5.61824 10.95 -0.00808546 -0.000291782 0.00754395
79 1 12.1894 8.90128 9.67491 0.00544118 0.00701725 -0.00294173
80 2 3.05953 9.13929 10.2575 0.00341535 -0.0149167 -0.0166185
81 2 6.07471 10.4879 8.55418 0.000934215 -0.000230355 -0.021419
82 1 7.59855 5.47677 11.6762 0.00078444 -0.0056944 0.00149136
83 2 7.69143 4.6373 2.2893 0.0123508 0.00581272 -0.0141223
84 2 6.61014 5.61467 11.7408 0.00235376 -0.00163462 -0.00632603
85 1 9.80912 4.11187 11.3239 0.00277769 0.00163418 -0.00162227
86 2 9.30458 4.81574 10.991 0.0174046 -0.013868 0.00520604
87 2 11.4764 4.50194 10.4379 0.0304645 0.0099698 -0.0202248
88 1 7.62809 12.5233 6.13134 -0.0078827 0.00317074 0.00725903
89 2 6.37874 12.5548 6.97399 -0.0440753 -0.00736766 0.0423585
90 2 7.76923 13.5234 6.02736 -0.0282933 -0.00236759 -0.00242313
91 1 5.97961 6.46161 6.33713 0.00438637 -0.0017283 -0.00301853
92 2 4.09338 7.73779 6.35966 0.0054449 -0.00384573 0.0163739
93 2 5.46634 5.89323 6.98999 -0.00438803 -0.00359429 0.00933133
94 1 4.09862 4.68589 7.70884 -0.00471482 -0.000959503 -0.00507892
95 2 3.56547 4.69106 8.5067 0.0171248 -0.0100013 0.0169806
96 2 5.69085 6.15552 5.4139 0.00745472 0.00171115 0.00963678
ITEM: TIMESTEP
3
ITEM: NUMBER OF ATOMS
96
ITEM: BOX BOUNDS pp pp pp
2.9236100000000000e+00 1.2773600000000000e+01
4.0306300000000004e+00 1.3880599999999999e+01
2.1372399999999998e+00 1.1987200000000000e+01
ITEM: ATOMS id type x y z vx vy vz
1 1 7.29859 12.6664 3.22581 0.00150153 0.0030897 0.00223561
2 2 6.57131 12.1001 2.91978 -0.00413489 -0.0099796 0.0343768
3 2 9.18367 13.2589 11.2193 -0.0100714 0.00494884 0.00747549
4 1 12.4132 10.0962 2.2814 -0.00111889 -0.00247856 -0.00507661
5 2 11.6037 10.6346 11.8736 0.0117136 -0.0076145 0.0193508
6 2 12.1374 9.30872 2.85168 0.0168309 -0.00473896 0.00473025
7 1 12.1922 7.73828 3.99344 0.00154698 0.00329095 0.00410715
8 2 11.3893 7.18964 4.05282 -0.00272506 -0.00618977 0.000834014
9 2 8.02757 8.45532 8.2351 0.0100521 0.0114511 0.0143479
10 1 7.43155 7.8906 8.74965 0.00733221 0.0119551 0.000807808
11 2 6.95132 7.40484 8.06135 0.000653177 -0.0431215 0.00556215
12 2 6.66686 9.27328 9.25551 0.00121144 -0.00907932 -0.00303973
13 1 5.76615 8.66842 2.27164 0.00553287 0.00157683 8.24733e-05
14 2 6.07153 8.90103 11.1907 -0.0108032 0.00737225 -0.0161424
15 2 5.45856 7.644 2.14951 -0.000208617 -0.00755525 -0.0177322
16 1 9.71976 8.00933 10.9788 -0.00225378 -0.0021778 -0.000882843
17 2 9.65664 7.60632 11.8357 0.0010369 0.0170103 -0.0225633
18 2 8.81239 7.91162 10.7473 -0.00691292 0.0242599 0.00519411
19 1 4.7739 5.73686 11.4821 0.00355391 0.00417109 0.00217334
20 2 4.53454 5.53911 2.62059 -0.0040368 0.00222593 -0.00031582
21 2 11.3377 8.84482 10.245 0.0311794 -0.0134795 0.00640438
22 1 9.97144 10.8166 11.618 0.000612463 0.000158994 0.00155557
23 2 9.64789 10.7526 2.73608 -0.00571378 0.00465861 -0.00955747
24 2 9.86061 9.81164 11.3415 0.00868414 -0.0170052 -0.0137255
25 1 3.41551 8.35508 6.34585 0.000717985 -0.000560063 -0.00306754
26 2 3.81761 9.19005 6.48162 0.0217537 0.00387811 0.0199023
27 2 3.47184 6.49117 3.9916 -0.00950532 0.0027749 -0.00186784
28 1 9.50696 7.08791 4.25113 -0.00251803 -0.00771181 0.00518326
29 2 9.13019 6.82631 5.091 -0.0101668 -0.00905807 0.0141029
30 2 9.19763 7.98523 4.14574 -0.00388686 -0.0156974 0.0197529
31 1 3.78717 11.2695 5.76362 0.00358495 0.000475987 -0.00152522
32 2 3.38443 12.6735 5.35127 -0.00246199 0.0123397 0.0362327
33 2 4.33537 11.0685 4.96877 -0.00404174 -0.0113622 0.000383969
34 1 7.7696 5.03209 9.03899 0.00101497 0.00152662 -0.00818938
35 2 7.95984 4.15137 9.22805 -0.00518841 0.00473041 0.00968559
36 2 7.68276 5.45526 9.95457 0.0257485 -0.0098738 0.0100484
37 1 8.01824 12.0119 10.1445 -0.00318176 -0.00753531 -0.00021501
38 2 9.10732 12.0574 8.92368 -0.0291136 -0.0068325 -0.0167012
39 2 8.6018 11.6463 10.8476 -0.00188347 -0.0156479 0.00941798
40 1 12.6401 13.593 5.27329 -0.00332551 -0.00293715 -0.00128797
41 2 3.65319 4.97407 4.4492 0.0116039 -0.024048 0.0276485
42 2 11.7283 13.3475 4.99157 -0.00575029 0.016603 -0.0137904
43 1 4.1875 5.78725 4.21759 -0.00163873 -0.00581498 -4.78915e-05
44 2 12.3568 8.28815 4.8473 -0.00312476 0.0140889 0.0118568
45 2 7.37083 12.5718 4.17029 -0.00526783 0.0353331 0.00375779
46 1 9.49792 12.363 8.03111 0.00667677 0.0019028 -0.00270922
47 2 8.34982 12.3029 6.81896 0.0285929 0.0112019 0.0123098
48 2 10.2215 11.795 7.79711 -0.0123472 0.000711489 0.0147046
49 1 10.4421 6.70641 8.52391 -0.00344388 0.000457113 -0.000721667
50 2 9.5073 6.45161 8.57011 0.0291725 -0.0114806 0.00718151
51 2 10.4557 7.33406 9.2484 0.0224435 0.00314829 -0.0265013
52 1 9.19325 10.3528 4.41156 -0.00274962 0.00174751 -0.00025935
53 2 9.01748 10.0435 5.32015 0.0211982 -0.00369352 0.0170437
54 2 8.96777 11.2818 4.40998 0.00509615 0.0247158 0.0277812
55 1 4.83472 11.0283 3.28384 -0.00618733 -0.000269518 -0.000553425
56 2 5.26421 10.1593 2.97834 0.0173523 -0.00890774 -0.000592011
57 2 3.88252 10.9167 3.02852 -0.031521 -0.0160674 0.00748093
58 1 6.2317 10.1215 9.465 -0.00036455 -0.00152835 0.000510187
59 2 5.0235 13.1224 7.82292 -0.00139676 -0.00406996 -0.0066845
60 2 7.30189 11.3344 9.80833 0.00141201 0.00923529 0.0013152
61 1 8.30113 5.29172 6.40169 0.00429216 -0.000165812 -0.00324552
62 2 8.59347 5.37581 7.34884 -0.013527 -0.029987 -0.0202778
63 2 7.43615 5.85354 6.26343 -0.018584 0.0182384 0.0287877
64 1 5.4692 12.2298 7.58116 0.000427116 0.000739192 0.00545711
65 2 4.52576 11.6304 6.62356 -0.0438932 -0.0156059 -0.0209118
66 2 3.4556 4.55107 6.9174 0.0115478 0.00667862 0.0153498
67 1 11.6249 10.6136 7.45583 -0.000687663 0.00343793 -0.000430528
68 2 12.2974 10.5116 6.72194 -0.0172931 0.018314 -0.00181693
69 2 11.7939 9.87902 8.16007 -0.0197787 -0.0228271 -0.0169356
70 1 9.99402 13.3106 4.20703 -0.00248237 -0.00158421 -0.00659138
71 2 9.83667 13.6443 3.3037 0.00558962 -0.00518417 -0.00155913
72 2 9.19862 13.4942 4.68084 -0.00774141 0.0180425 0.031091
73 1 9.31141 9.32172 7.04806 -0.00269751 0.00445407 0.00220391
74 2 9.75392 8.48861 6.8265 0.00162347 0.00363397 -0.00898098
75 2 10.047 9.99221 7.17386 -0.00675895 -0.0106258 -0.0182363
76 1 12.1929 4.90998 9.90739 -0.00241607 -0.00392173 0.00134029
77 2 11.673 5.39254 9.2385 -0.0163661 0.00609734 -0.00433324
78 2 4.0117 5.61759 10.9533 -0.0133401 -0.00222128 0.00551042
79 1 12.192 8.90478 9.67344 0.00490166 0.00698154 -0.00294712
80 2 3.0604 9.13205 10.2499 0.000622683 -0.0138944 -0.0137767
81 2 6.07465 10.4884 8.54427 -0.00106086 0.0019481 -0.0175327
82 1 7.59883 5.47396 11.677 0.000364766 -0.00550015 0.00160813
83 2 7.69797 4.63965 2.28235 0.0137434 0.0030655 -0.013344
84 2 6.61194 5.61409 11.7373 0.00471105 -0.000802365 -0.00781746
85 1 9.81061 4.11264 11.3231 0.00321057 0.00141615 -0.00147775
86 2 9.31264 4.81113 10.993 0.0144985 -0.0037946 0.002203
87 2 11.4922 4.50681 10.428 0.0313931 0.00872583 -0.0186906
88 1 7.62418 12.5249 6.13489 -0.00771758 0.00334008 0.00698961
89 2 6.35495 12.5503 6.99615 -0.0500293 -0.0104098 0.0455515
90 2 7.75497 13.5229 6.0263 -0.0287502 0.00047115 -0.00177758
91 1 5.9817 6.46076 6.33559 0.00398527 -0.00169442 -0.00309641
92 2 4.09787 7.73473 6.3678 0.0120456 -0.00810116 0.0161977
93 2 5.46461 5.89176 6.99347 -0.00241947 -0.00219053 0.00441698
94 1 4.09625 4.6854 7.70616 -0.0047322 -0.00100095 -0.00557583
95 2 3.57343 4.68601 8.51559 0.014714 -0.0102062 0.0182195
96 2 5.69425 6.15669 5.42036 0.0059507 0.00274191 0.0155922
ITEM: TIMESTEP
4
ITEM: NUMBER OF ATOMS
96
ITEM: BOX BOUNDS pp pp pp
2.9236100000000000e+00 1.2773600000000000e+01
4.0306300000000004e+00 1.3880599999999999e+01
2.1372399999999998e+00 1.1987200000000000e+01
ITEM: ATOMS id type x y z vx vy vz
1 1 7.29935 12.6679 3.22687 0.00151196 0.00317856 0.00200005
2 2 6.56939 12.0953 2.9378 -0.00352743 -0.00909552 0.0375069
3 2 9.1785 13.2599 11.2232 -0.0104217 -0.000663613 0.00822896
4 1 12.4127 10.0949 2.27891 -0.000953497 -0.00279031 -0.00489194
5 2 11.6095 10.6305 11.8837 0.0110191 -0.00837318 0.0206753
6 2 12.146 9.3076 2.85321 0.0174092 0.000101011 0.00148736
7 1 12.1931 7.73998 3.99547 0.00173253 0.00348914 0.0040362
8 2 11.3874 7.18715 4.05408 -0.00489991 -0.00354117 0.00419663
9 2 8.03301 8.46101 8.24205 0.0116348 0.0111638 0.0130553
10 1 7.43523 7.89655 8.75004 0.00738493 0.0117832 0.000753004
11 2 6.95157 7.38324 8.06426 0.00106342 -0.0424914 0.00658665
12 2 6.66804 9.26745 9.25436 0.00324937 -0.0138179 -0.00149564
13 1 5.76891 8.66898 2.27154 0.00550067 0.000675947 -0.000524351
14 2 6.06531 8.90442 11.1845 -0.0140717 0.00626494 -0.008446
15 2 5.45943 7.64392 2.14099 0.00369389 0.00731962 -0.0161398
16 1 9.71866 8.00829 10.9784 -0.00216475 -0.00195025 -0.000861732
17 2 9.65774 7.61439 11.8254 0.00337706 0.0147067 -0.0171033
18 2 8.80782 7.92379 10.7488 -0.0114889 0.0244677 0.000751892
19 1 4.77577 5.73898 11.4833 0.00384594 0.00428467 0.00246953
20 2 4.5324 5.54042 2.61963 -0.00442456 0.00302396 -0.00338235
21 2 11.3559 8.83832 10.2473 0.0409574 -0.0125001 0.00290993
22 1 9.97166 10.8165 11.6188 0.000234015 -0.000591826 0.00170199
23 2 9.64561 10.7555 2.73023 -0.00352988 0.00687504 -0.0135071
24 2 9.86523 9.80503 11.3346 0.00977459 -0.00900612 -0.0135455
25 1 3.41572 8.35481 6.34431 0.000226983 -0.000504721 -0.00310024
26 2 3.82915 9.19289 6.49154 0.0239118 0.00672336 0.0196219
27 2 3.46759 6.49285 3.99113 -0.0073292 0.00338348 0.000202765
28 1 9.50572 7.08406 4.2537 -0.00243812 -0.00768366 0.00515355
29 2 9.12507 6.82147 5.09801 -0.0100886 -0.0102792 0.0135434
30 2 9.1957 7.97758 4.15582 -0.00390086 -0.01458 0.0204213
31 1 3.78906 11.2697 5.76297 0.00394519 0.000318455 -0.00105796
32 2 3.38172 12.681 5.3691 -0.00845881 0.0176355 0.0347977
33 2 4.33381 11.0629 4.96888 -0.00190946 -0.0109514 -0.000310597
34 1 7.77011 5.03298 9.03492 0.00104849 0.00200068 -0.00805354
35 2 7.95764 4.15157 9.2329 -0.0036473 -0.00385927 0.00940175
36 2 7.69546 5.45032 9.95888 0.0250261 -0.00972759 0.0068471
37 1 8.01659 12.0081 10.1444 -0.00336189 -0.00739994 -0.000358747
38 2 9.09278 12.0539 8.91525 -0.0290474 -0.00727737 -0.0169664
39 2 8.60044 11.6374 10.8522 -0.00363463 -0.0197841 0.0086935
40 1 12.6384 13.5916 5.27265 -0.00332235 -0.00291715 -0.00125225
41 2 3.65902 4.96156 4.46338 0.0117631 -0.0252901 0.0287803
42 2 11.726 13.3558 4.9847 -0.00316097 0.0164123 -0.0136976
43 1 4.18666 5.78436 4.21753 -0.00175886 -0.00573738 -0.000207229
44 2 12.3549 8.29367 4.85265 -0.0045708 0.00778622 0.00930809
45 2 7.36769 12.589 4.17223 -0.00709729 0.0336751 0.00426274
46 1 9.50122 12.364 8.02974 0.00650065 0.00219376 -0.00276252
47 2 8.36428 12.308 6.82567 0.0284502 0.00943548 0.0137567
48 2 10.2162 11.7946 7.80446 -0.0085148 -0.00250197 0.0144635
49 1 10.4403 6.70661 8.52355 -0.00363584 0.00031686 -0.000780345
50 2 9.52219 6.44561 8.57341 0.0291322 -0.012703 0.00620566
51 2 10.4677 7.33591 9.23516 0.0252267 0.00474073 -0.0258037
52 1 9.19187 10.3536 4.41141 -0.00279026 0.00160556 -0.000299177
53 2 9.02818 10.0418 5.32884 0.0216728 -0.00290578 0.0171486
54 2 8.97022 11.2946 4.42428 0.00493876 0.025471 0.0293073
55 1 4.83167 11.0281 3.28357 -0.00605423 -0.000423075 -0.00050821
56 2 5.27275 10.1552 2.97823 0.0162683 -0.00677087 0.00027321
57 2 3.86633 10.9088 3.03193 -0.0321947 -0.0158493 0.00630366
58 1 6.23146 10.1208 9.46518 -0.000574212 -0.00111315 0.000165546
59 2 5.02261 13.1199 7.81923 -0.00248944 -0.00561154 -0.00775514
60 2 7.30351 11.339 9.80999 0.00469082 0.00876566 0.00513757
61 1 8.30334 5.29162 6.40005 0.00448946 -0.000231669 -0.00335778
62 2 8.58553 5.36061 7.33792 -0.0177457 -0.0307694 -0.0224811
63 2 7.42775 5.86212 6.27861 -0.0144827 0.0156904 0.0317842
64 1 5.46945 12.2302 7.5839 0.000501755 0.000892313 0.00552099
65 2 4.50291 11.6222 6.61117 -0.0471782 -0.0173222 -0.0284736
66 2 3.46219 4.55432 6.92646 0.0141086 0.00624093 0.020322
67 1 11.6246 10.6153 7.45568 -0.000627788 0.00316151 -0.000161675
68 2 12.2881 10.5206 6.72203 -0.0193365 0.0176056 0.00195462
69 2 11.7844 9.86876 8.15043 -0.0179821 -0.0180914 -0.0217184
70 1 9.99284 13.3098 4.20374 -0.00229497 -0.00165803 -0.00652788
71 2 9.83952 13.6417 3.30293 0.00556545 -0.0050332 -0.00162755
72 2 9.19426 13.5035 4.6968 -0.00875193 0.0189048 0.0319394
73 1 9.31005 9.32394 7.04913 -0.00277229 0.00440335 0.00209047
74 2 9.75483 8.49068 6.82227 0.00184576 0.00463304 -0.00792502
75 2 10.0435 9.98645 7.16464 -0.00714251 -0.0118572 -0.0184851
76 1 12.1917 4.90803 9.90804 -0.00234655 -0.00380784 0.00117595
77 2 11.665 5.39615 9.23611 -0.0154965 0.00805834 -0.00485659
78 2 4.00381 5.61602 10.9555 -0.0175969 -0.00395909 0.0038806
79 1 12.1943 8.90826 9.67196 0.00435818 0.006915 -0.00302457