ITEM: TIMESTEP
0
ITEM: NUMBER OF ATOMS
96
ITEM: BOX BOUNDS pp pp pp
2.9236100000000000e+00 1.2773600000000000e+01
4.0306300000000004e+00 1.3880599999999999e+01
2.1372399999999998e+00 1.1987200000000000e+01
ITEM: ATOMS id type x y z vx vy vz
1 1 7.29398 12.6564 3.21392 -0.000560734 -0.00180396 -0.00339699
2 2 6.58861 12.1425 2.83748 0.000929608 0.00807191 -0.00918603
3 2 9.22524 13.1817 11.1975 0.0150262 -0.019953 -0.00423053
4 1 12.4171 10.1043 2.30231 0.00063369 0.0024632 0.00471633
5 2 11.5913 10.6283 11.8287 0.0108228 -0.0105525 -0.00322937
6 2 12.0806 9.37908 2.79925 -0.0131819 0.0167906 -0.0117826
7 1 12.189 7.7276 3.97341 -0.000479924 -0.00250103 -0.00641884
8 2 11.3459 7.23251 4.09337 -0.0244114 0.0115931 0.0163832
9 2 8.01511 8.40844 8.19582 0.00299893 -0.0133927 0.00169769
10 1 7.40645 7.84426 8.7463 -0.00488973 -0.0105951 -0.00111341
11 2 6.89109 7.52473 8.01251 -0.0355891 0.0116672 -0.0201145
12 2 6.69697 9.23308 9.28336 0.0111481 -0.0198622 0.00780533
13 1 5.7442 8.65278 2.26787 -0.00513671 -0.00388671 9.69967e-05
14 2 6.08449 8.86375 11.2971 0.00501025 -0.00586637 0.0108462
15 2 5.493 7.80895 2.22207 0.00392407 0.0300197 0.0136274
16 1 9.72733 8.01748 10.9884 0.000802039 0.00119268 0.00446109
17 2 9.68579 7.55895 11.8907 0.0144958 0.00109602 -0.0106568
18 2 8.81601 7.8197 10.681 0.00726946 -0.0201131 -0.0221648
19 1 4.7658 5.7222 11.4776 -0.000875616 -0.0032175 -0.00089057
20 2 4.53443 5.54056 2.57524 -0.00621609 0.00181482 -0.0176668
21 2 11.3647 8.90704 10.1712 0.0247148 0.0152733 -0.0207687
22 1 9.96432 10.8093 11.6158 -0.00246928 -0.00183317 0.000247786
23 2 9.70401 10.7786 2.71834 0.0191611 0.0172373 -0.00912194
24 2 9.83633 9.91666 11.3623 -0.00654319 0.0105005 -0.0104299
25 1 3.40339 8.35653 6.35757 -0.00432382 -5.4194e-05 0.002876
26 2 3.78546 9.24283 6.39923 0.00298723 0.0214184 -0.0229133
27 2 3.52731 6.53216 4.01474 0.0152524 0.0267938 0.00751499
28 1 9.51875 7.12096 4.22717 0.00340818 0.00897043 -0.00708506
29 2 9.15529 6.8453 5.05506 0.000800582 0.00185291 -0.00160483
30 2 9.21833 8.03601 4.09238 0.00686628 0.00592568 -0.00439753
31 1 3.78112 11.2671 5.77508 0.000990416 -0.000375451 0.00378539
32 2 3.33038 12.6916 5.2141 -0.0183457 0.0154647 -0.0266385
33 2 4.35511 11.1173 4.98533 0.000469027 0.0114314 0.0095083
34 1 7.76682 5.03054 9.07002 -4.069e-05 -0.000525432 0.00666421
35 2 7.99144 4.05954 9.20584 0.00509466 -0.0179356 0.000997175
36 2 7.57329 5.47954 9.90256 -0.0283072 -0.000895369 -0.00812316
37 1 8.02605 12.0432 10.1417 0.000715036 0.00790832 -0.00161517
38 2 9.22707 12.078 8.97559 0.0301179 0.00394676 0.00766831
39 2 8.59266 11.6382 10.8194 -0.00312936 -0.0170389 -0.00121048
40 1 12.6539 13.6024 5.27853 0.00374209 0.00142821 0.00120204
41 2 3.60908 5.01017 4.37315 -0.00831621 -0.00512341 -0.00965136
42 2 11.7652 13.3021 5.0442 0.00230607 -0.000763377 0.010967
43 1 4.19355 5.811 4.21547 0.0014274 0.00565869 -0.000984703
44 2 12.3586 8.17533 4.80588 0.00331794 -0.0300737 0.00367265
45 2 7.35453 12.4042 4.14101 -0.0131462 -0.0467042 -0.0133258
46 1 9.47263 12.3565 8.0402 -0.00525499 -0.00200049 0.00167814
47 2 8.28389 12.2112 6.84159 -0.00315896 -0.032372 0.0230309
48 2 10.2639 11.7955 7.76052 -0.00292041 0.0101384 9.26189e-05
49 1 10.4464 6.70407 8.53013 -0.00174364 -0.000481009 0.00278667
50 2 9.47537 6.48981 8.51373 0.0190204 0.00797856 -0.0212138
51 2 10.4266 7.30638 9.3152 0.00905221 -0.0147709 0.00193961
52 1 9.205 10.3405 4.40938 0.00311165 -0.00439038 -0.00138193
53 2 8.9333 10.063 5.29345 -0.0207073 0.00601007 0.00492435
54 2 8.92807 11.251 4.32927 -0.0148739 0.0089804 -0.0122813
55 1 4.86316 11.0304 3.2884 0.00776644 0.00129137 0.00185077
56 2 5.22161 10.1799 2.98512 0.00028766 -0.00461334 0.00175229
57 2 3.92938 10.9945 2.97141 -0.00876707 0.0238017 -0.0200652
58 1 6.23095 10.1327 9.46225 -0.000238834 0.00330172 5.70529e-05
59 2 5.02962 13.1034 7.81087 0.00283266 -0.0117725 -0.0139902
60 2 7.35804 11.3093 9.86196 0.0244026 -0.0024708 0.0228996
61 1 8.29152 5.28939 6.41553 0.000175547 -0.00178088 0.00362642
62 2 8.55861 5.47574 7.35311 -0.029231 0.0185572 -0.0141797
63 2 7.50857 5.7869 6.19535 0.00264259 -0.00546728 -0.00911299
64 1 5.47177 12.23 7.55833 0.00222298 0.000730917 -0.00623852
65 2 4.61998 11.6726 6.58716 -0.00303812 0.00562415 -0.0356815
66 2 3.49063 4.52406 6.95232 0.0294561 -0.0067022 0.0260149
67 1 11.6296 10.597 7.45999 0.00156348 -0.00435111 0.00131918
68 2 12.3288 10.4462 6.77828 0.00125808 -0.0111391 0.018196
69 2 11.8922 10.0095 8.18714 0.0273886 0.0323596 0.00860194
70 1 10.0092 13.3163 4.23026 0.00470223 0.00146832 0.00474303
71 2 9.83656 13.6563 3.31788 0.00909122 -0.000715595 0.00687641
72 2 9.15283 13.4374 4.62331 -0.0286717 -0.0126895 0.00398564
73 1 9.32177 9.30583 7.0383 0.00233572 -0.00322554 -0.00257415
74 2 9.7663 8.48233 6.87662 0.0102598 -0.00303302 0.0152969
75 2 10.0435 9.97781 7.23093 -0.00977827 -0.0192485 0.00936272
76 1 12.1987 4.92242 9.90606 -9.84304e-05 0.00178431 0.00138304
77 2 11.724 5.41614 9.22954 0.00552051 0.0177911 -0.0076893
78 2 3.98351 5.59542 10.9063 -0.0196691 -0.0120767 -0.0115237
79 1 12.1666 8.87738 9.68605 -0.00637653 -0.00643886 0.00324674
80 2 2.99053 9.19392 10.3282 -0.0358173 0.0145529 0.01946
81 2 6.04272 10.5265 8.62781 -0.0168268 0.0216927 0.0117378
82 1 7.59115 5.49614 11.674 -0.00303378 0.00479262 0.000457613
83 2 7.66768 4.62099 2.32517 -0.00146709 0.00395971 0.00186911
84 2 6.6277 5.63698 11.741 0.00805811 0.0121948 -0.00621382
85 1 9.80186 4.10712 11.3292 -0.00217066 -0.000325316 0.000912884
86 2 9.24265 4.90097 10.9718 -0.00934966 0.0126421 0.00290867
87 2 11.4377 4.49276 10.475 0.0139086 0.0102954 -0.00628265
88 1 7.656 12.5152 6.10126 0.00796161 -0.00120146 -0.00967172
89 2 6.42299 12.541 6.89177 -0.0197691 -0.0144422 -0.00307668
90 2 7.86205 13.5607 6.04626 0.0243412 0.011193 0.0105767
91 1 5.9608 6.46849 6.34426 -0.00585552 0.0026245 0.00081486
92 2 4.14552 7.71625 6.30081 0.0239777 -0.00479613 -0.0166924
93 2 5.48713 5.90514 6.92836 0.00150152 -0.00320287 -0.0140821
94 1 4.11312 4.68828 7.71952 0.00327626 0.000403135 0.00147939
95 2 3.48705 4.72371 8.47574 -0.0221599 0.00867964 -0.000883059
96 2 5.65481 6.16948 5.46084 -0.0127308 0.00931044 0.0283158
ITEM: TIMESTEP
1
ITEM: NUMBER OF ATOMS
96
ITEM: BOX BOUNDS pp pp pp
2.9236100000000000e+00 1.2773600000000000e+01
4.0306300000000004e+00 1.3880599999999999e+01
2.1372399999999998e+00 1.1987200000000000e+01
ITEM: ATOMS id type x y z vx vy vz
1 1 7.29375 12.6555 3.21222 -0.000376079 -0.00163451 -0.00340072
2 2 6.58862 12.1462 2.83331 -0.0010043 0.00676941 -0.00779079
3 2 9.23327 13.1725 11.1954 0.0170809 -0.0164788 -0.00411047
4 1 12.4174 10.1056 2.3046 0.00064048 0.00278614 0.00444395
5 2 11.5976 10.6228 11.8274 0.0139824 -0.0111351 -0.00215615
6 2 12.0739 9.38642 2.79416 -0.0135668 0.0119849 -0.00817716
7 1 12.1887 7.72633 3.9701 -0.000612808 -0.0026061 -0.00678808
8 2 11.3331 7.23829 4.10156 -0.0262386 0.0116239 0.0160278
9 2 8.01685 8.40145 8.19765 0.00387195 -0.0146682 0.00558182
10 1 7.40408 7.83904 8.74568 -0.00464113 -0.0102829 -0.00139683
11 2 6.87227 7.52962 8.00248 -0.0390165 0.0083283 -0.0192102
12 2 6.70227 9.22342 9.28708 0.0096049 -0.0180377 0.00684489
13 1 5.74168 8.65102 2.26809 -0.00492203 -0.00307884 0.000790315
14 2 6.08776 8.86149 11.3 0.00824249 -0.00300005 0.000407015
15 2 5.49365 7.8199 2.22847 -0.00185496 0.0122019 0.0120102
16 1 9.72763 8.018 10.9907 0.000404812 0.000921431 0.00489235
17 2 9.69334 7.56043 11.8836 0.0154966 0.00454742 -0.0172004
18 2 8.82062 7.80991 10.6699 0.0112991 -0.0190582 -0.0219004
19 1 4.76539 5.72061 11.4771 -0.000815484 -0.00313818 -0.00117694
20 2 4.53082 5.54147 2.56654 -0.0082491 0.00176743 -0.0166622
21 2 11.3762 8.91454 10.1615 0.0195788 0.0147127 -0.0173262
22 1 9.96307 10.8085 11.6159 -0.00251256 -0.0014353 0.000271908
23 2 9.71365 10.7877 2.71423 0.0192001 0.0190096 -0.00686638
24 2 9.83282 9.91967 11.3559 -0.00758168 0.00138101 -0.0149584
25 1 3.40125 8.35648 6.35901 -0.00417357 -0.000139128 0.00286042
26 2 3.78721 9.25307 6.38751 0.00362151 0.0187561 -0.0239861
27 2 3.53492 6.54643 4.01858 0.0151702 0.0298218 0.00788906
28 1 9.52048 7.12548 4.22356 0.00351412 0.0090985 -0.00732695
29 2 9.15539 6.84618 5.05459 -0.000274946 0.00179559 -0.00056362
30 2 9.22184 8.03854 4.09083 0.00708856 0.00438722 -0.00182697
31 1 3.78179 11.2669 5.77702 0.00169225 -0.000264415 0.00396997
32 2 3.32163 12.6996 5.20147 -0.0162225 0.0164777 -0.0238934
33 2 4.35489 11.1228 4.99013 -0.00131455 0.0104755 0.0091347
34 1 7.76686 5.03019 9.07326 0.000213337 -0.000896964 0.0062695
35 2 7.99348 4.05222 9.20682 0.0029013 -0.0108418 0.00292224
36 2 7.55909 5.47854 9.89917 -0.0284774 -0.00314503 -0.00530653
37 1 8.02635 12.0471 10.1409 0.00051723 0.00783646 -0.00171222
38 2 9.242 12.0799 8.97912 0.0293884 0.00382172 0.00663483
39 2 8.59127 11.6291 10.8193 -0.00229217 -0.0187862 0.000612301
40 1 12.6558 13.6031 5.27911 0.00379601 0.00118645 0.00112941
41 2 3.60531 5.00725 4.36884 -0.00659106 -0.00587309 -0.00770024
42 2 11.7653 13.3027 5.04947 -0.00212195 0.00319617 0.010123
43 1 4.19425 5.81378 4.21496 0.00133723 0.00544734 -0.00106643
44 2 12.3608 8.16081 4.80918 0.00589064 -0.0278082 0.00953395
45 2 7.34751 12.3807 4.13399 -0.0147521 -0.0469969 -0.0145929
46 1 9.47009 12.3555 8.04099 -0.00492336 -0.00215912 0.00149938
47 2 8.28272 12.1949 6.85353 -0.00218397 -0.0322 0.023787
48 2 10.2613 11.8014 7.76115 -0.00712162 0.0133448 0.00218913
49 1 10.4454 6.70384 8.53159 -0.00225554 -0.000455112 0.00302217
50 2 9.4862 6.49363 8.50278 0.0233534 0.00719251 -0.022429
51 2 10.4321 7.29856 9.31533 0.0126162 -0.0162283 -0.00102164
52 1 9.20655 10.3383 4.40866 0.00304292 -0.00453013 -0.00146967
53 2 8.92311 10.0662 5.29631 -0.0198568 0.00668321 0.00600718
54 2 8.92052 11.2559 4.32363 -0.0150123 0.00966159 -0.010254
55 1 4.86704 11.0311 3.28936 0.00769074 0.00151238 0.00196302
56 2 5.22236 10.177 2.986 0.0024195 -0.00682456 0.00184499
57 2 3.92446 11.0066 2.96126 -0.00984174 0.0244465 -0.0202192
58 1 6.23086 10.1343 9.46236 -8.87373e-05 0.00315305 0.000371162
59 2 5.03107 13.0974 7.80329 0.00273815 -0.0117861 -0.0160547
60 2 7.37028 11.3082 9.87349 0.0239615 -0.00188043 0.0226973
61 1 8.29178 5.28841 6.41732 0.000856469 -0.00214489 0.00349451
62 2 8.54307 5.48458 7.34586 -0.0325046 0.0168114 -0.0139308
63 2 7.50826 5.78524 6.19096 -0.00390334 -0.00125801 -0.00866117
64 1 5.47301 12.2304 7.55517 0.002758 0.000794489 -0.00641344
65 2 4.61641 11.675 6.5679 -0.0114447 0.00381433 -0.0410752
66 2 3.50623 4.52063 6.96551 0.0322546 -0.00715813 0.0257012
67 1 11.6304 10.5948 7.46066 0.00162204 -0.00425588 0.00135043
68 2 12.3293 10.4411 6.78703 0.000784255 -0.00940415 0.0164209
69 2 11.906 10.0252 8.19227 0.0275416 0.0301017 0.0122156
70 1 10.0115 13.3171 4.23258 0.00459868 0.00155125 0.00457818
71 2 9.84177 13.6557 3.32155 0.0117068 -0.0017248 0.00771149
72 2 9.13834 13.4309 4.62604 -0.0282051 -0.0133505 0.0063769
73 1 9.3229 9.30426 7.037 0.00214628 -0.00310741 -0.00261721
74 2 9.77194 8.48049 6.8844 0.0121976 -0.00442053 0.0158073
75 2 10.0382 9.96752 7.23536 -0.0108352 -0.0213338 0.00852792
76 1 12.1986 4.92323 9.90686 -0.000472049 0.00150696 0.00175386
77 2 11.7263 5.42558 9.22567 0.00367159 0.0196783 -0.0073966
78 2 3.97371 5.58912 10.9011 -0.0188605 -0.0129597 -0.00883202
79 1 12.1635 8.8742 9.68765 -0.00587546 -0.00629852 0.00310276
80 2 2.97183 9.20106 10.3377 -0.0383409 0.0140312 0.0184459
81 2 6.03389 10.5379 8.63275 -0.0182512 0.0235149 0.00822171
82 1 7.5896 5.49846 11.6743 -0.00312195 0.00449404 0.000790195
83 2 7.66727 4.62388 2.32533 -0.000275218 0.00755457 -0.00117308
84 2 6.63152 5.64353 11.7375 0.00682757 0.0139673 -0.00765846
85 1 9.80073 4.10706 11.3296 -0.00236195 9.58794e-05 0.0006596
86 2 9.23899 4.90526 10.9743 -0.00523933 0.00410945 0.00701295
87 2 11.4463 4.49891 10.4705 0.0199664 0.0140544 -0.011198
88 1 7.65999 12.5147 6.0964 0.00803173 -0.000800111 -0.00971066
89 2 6.41105 12.5331 6.89159 -0.0273851 -0.0169003 0.00202947
90 2 7.874 13.5655 6.05211 0.0233334 0.00735778 0.012922
91 1 5.95787 6.46989 6.34459 -0.00581929 0.00298657 0.000552683
92 2 4.15717 7.71483 6.29255 0.0218261 -0.000337231 -0.0162736
93 2 5.4872 5.90264 6.92242 -0.00132116 -0.00694733 -0.00918884
94 1 4.11469 4.68847 7.72021 0.00301787 0.000365605 0.00137785
95 2 3.47646 4.728 8.47568 -0.0197561 0.00846116 0.000382784
96 2 5.6482 6.17438 5.47504 -0.0138793 0.0101099 0.0273141
ITEM: TIMESTEP
2
ITEM: NUMBER OF ATOMS
96
ITEM: BOX BOUNDS pp pp pp
2.9236100000000000e+00 1.2773600000000000e+01
4.0306300000000004e+00 1.3880599999999999e+01
2.1372399999999998e+00 1.1987200000000000e+01
ITEM: ATOMS id type x y z vx vy vz
1 1 7.2936 12.6548 3.21052 -0.000201333 -0.00148931 -0.00337328
2 2 6.58761 12.1493 2.82969 -0.00311589 0.00548523 -0.00697735
3 2 9.24232 13.1652 11.1934 0.0190221 -0.0125004 -0.00407004
4 1 12.4177 10.1071 2.30675 0.000704386 0.00312494 0.00417107
5 2 11.6053 10.6172 11.8265 0.0164341 -0.0108343 -0.00161097
6 2 12.067 9.39106 2.79107 -0.0139847 0.00625168 -0.00389977
7 1 12.1884 7.72499 3.96662 -0.000827317 -0.00273629 -0.00708506
8 2 11.3197 7.24413 4.1094 -0.0271188 0.0118888 0.0149785
9 2 8.01898 8.39377 8.2014 0.00459357 -0.0161188 0.00932256
10 1 7.40181 7.83398 8.7449 -0.00448234 -0.00997769 -0.00176301
11 2 6.85207 7.53306 7.9933 -0.0410314 0.00583756 -0.0167364
12 2 6.70657 9.21504 9.2902 0.00725609 -0.0148198 0.0054561
13 1 5.73928 8.6497 2.26866 -0.00466992 -0.00215457 0.00147078
14 2 6.09273 8.86075 11.2975 0.0113646 -0.000298621 -0.00975376
15 2 5.49115 7.82115 2.23408 -0.00812096 -0.00727279 0.0103024
16 1 9.72773 8.0184 10.9933 1.71418e-05 0.000697493 0.00522232
17 2 9.70129 7.5635 11.8735 0.0160861 0.00730072 -0.022455
18 2 8.82731 7.80064 10.6591 0.0153982 -0.0180531 -0.0212102
19 1 4.76498 5.71906 11.4764 -0.000832167 -0.00306856 -0.00156407
20 2 4.52618 5.54233 2.55858 -0.0103312 0.00160884 -0.0147231
21 2 11.3843 8.92175 10.1539 0.0111519 0.0140984 -0.0128519
22 1 9.96181 10.8079 11.6161 -0.00253746 -0.00101102 0.000211859
23 2 9.72321 10.7976 2.71147 0.0189064 0.0202115 -0.00388271
24 2 9.82875 9.91804 11.3473 -0.00873876 -0.00759526 -0.0188416
25 1 3.39922 8.35639 6.36043 -0.00388799 -0.000194521 0.00282553
26 2 3.78908 9.26159 6.37524 0.0034705 0.0146947 -0.025077
27 2 3.54248 6.56198 4.02263 0.0150675 0.0318535 0.00838455
28 1 9.52226 7.13006 4.21984 0.00361572 0.00918066 -0.00752509
29 2 9.15502 6.8471 5.0545 -0.00104505 0.00198534 -0.000148589
30 2 9.22542 8.0404 4.09055 0.00714761 0.00333755 0.000691469
31 1 3.78281 11.2668 5.77905 0.00239162 -0.000153842 0.0041607
32 2 3.31416 12.7081 5.19021 -0.0133853 0.0170224 -0.0212328
33 2 4.3538 11.1278 4.99446 -0.00300108 0.0091621 0.00758914
34 1 7.76703 5.02964 9.07629 0.000479673 -0.00131382 0.00586051
35 2 7.99434 4.0487 9.20876 0.000481887 -0.00301899 0.00487711
36 2 7.54481 5.47639 9.89725 -0.028643 -0.00543092 -0.00228757
37 1 8.02657 12.051 10.14 0.000384998 0.00771098 -0.00173717
38 2 9.25646 12.0818 8.98222 0.0282108 0.00375476 0.0060046
39 2 8.59037 11.6194 10.82 -0.00116629 -0.0194819 0.00226698
40 1 12.6577 13.6036 5.27966 0.00381633 0.000972606 0.00104039
41 2 3.60249 5.0043 4.36545 -0.00455171 -0.00527399 -0.00595298
42 2 11.7631 13.3053 5.05432 -0.00672147 0.00740462 0.00932262
43 1 4.19489 5.81645 4.2144 0.00121065 0.00520357 -0.00114495
44 2 12.3645 8.14752 4.81541 0.00889914 -0.0253347 0.0151271
45 2 7.33978 12.3572 4.12642 -0.0159703 -0.0468785 -0.0155539
46 1 9.46771 12.3543 8.0417 -0.00462894 -0.00229427 0.00132205
47 2 8.28171 12.179 6.86538 -0.00250138 -0.0308193 0.0226021
48 2 10.2568 11.8088 7.76271 -0.0105279 0.016022 0.00371552
49 1 10.4441 6.70361 8.53315 -0.00260983 -0.000453156 0.0031779
50 2 9.49872 6.497 8.4913 0.0256565 0.00616554 -0.0233382
51 2 10.4392 7.29015 9.31418 0.0157529 -0.0170254 -0.00308636
52 1 9.20804 10.336 4.40791 0.00291339 -0.00457631 -0.00149857
53 2 8.91344 10.0697 5.29946 -0.0185657 0.00748902 0.00610394
54 2 8.91306 11.2607 4.31902 -0.0145576 0.0087156 -0.00822143
55 1 4.87085 11.0319 3.29036 0.00751285 0.00171078 0.002026
56 2 5.22403 10.1731 2.98696 0.00390328 -0.00837731 0.00206465
57 2 3.91954 11.0189 2.95119 -0.00879414 0.0246723 -0.0197134
58 1 6.23086 10.1359 9.46262 0.000100313 0.00293519 0.0006672
59 2 5.03236 13.0916 7.79482 0.00229642 -0.0109735 -0.0175941
60 2 7.382 11.3074 9.88466 0.022316 -0.00142874 0.0214869
61 1 8.29238 5.28725 6.41902 0.00147329 -0.00248078 0.00327347
62 2 8.52611 5.49255 7.33918 -0.0349592 0.0151235 -0.0119414
63 2 7.50467 5.78564 6.18669 -0.0102684 0.00262996 -0.00857651
64 1 5.47453 12.2308 7.55192 0.00332107 0.000810601 -0.00658808
65 2 4.60854 11.6764 6.54608 -0.0201138 0.001768 -0.0458151
66 2 3.52288 4.5169 6.97802 0.0335702 -0.00795402 0.0232625
67 1 11.6312 10.5927 7.46134 0.00167119 -0.00414501 0.00140207
68 2 12.3296 10.4368 6.7947 0.000590142 -0.00770106 0.0139767
69 2 11.9197 10.0396 8.19936 0.0274751 0.0276932 0.0162058
70 1 10.0138 13.3179 4.23484 0.00436984 0.00164197 0.00448503
71 2 9.84827 13.6546 3.32559 0.0141664 -0.0026167 0.00834892
72 2 9.12462 13.424 4.62969 -0.0256493 -0.0142645 0.00765478
73 1 9.32392 9.30272 7.03568 0.00190332 -0.00306395 -0.00267552
74 2 9.7785 8.47791 6.89243 0.0138951 -0.00591188 0.0162848
75 2 10.0327 9.95648 7.23946 -0.0110607 -0.0222009 0.00803025
76 1 12.1982 4.92393 9.90781 -0.000776643 0.00130838 0.00202532
77 2 11.7277 5.43582 9.22214 0.0021001 0.0209859 -0.00633873
78 2 3.96465 5.58246 10.8975 -0.0167815 -0.0135486 -0.00547954
79 1 12.1607 8.87108 9.68915 -0.00523838 -0.00616159 0.00289234
80 2 2.95219 9.20795 10.3466 -0.0394884 0.0135748 0.0173853
81 2 6.02447 10.55 8.63603 -0.0191952 0.0244974 0.00528077
82 1 7.58803 5.50063 11.6748 -0.00315123 0.00421418 0.00110285
83 2 7.6674 4.62854 2.324 0.000711419 0.0109256 -0.00405064
84 2 6.63453 5.65095 11.7333 0.00486891 0.0156483 -0.00888949
85 1 9.7995 4.10722 11.3299 -0.00254724 0.000511665 0.00041913
86 2 9.23741 4.90508 10.9788 -0.00118018 -0.00493229 0.0110952
87 2 11.4577 4.50681 10.4638 0.0245868 0.0171496 -0.0152421
88 1 7.66403 12.5144 6.09155 0.00815939 -0.000394586 -0.00960554
89 2 6.3956 12.5241 6.8938 -0.0338395 -0.0190807 0.0065205
90 2 7.88538 13.5681 6.05918 0.0220798 0.00203705 0.015435
91 1 5.95498 6.47148 6.34481 -0.0057403 0.00338412 0.000385977
92 2 4.16735 7.71591 6.28454 0.0182788 0.00503208 -0.015674
93 2 5.48581 5.89819 6.91917 -0.00418684 -0.0108288 -0.003506
94 1 4.11614 4.68865 7.7209 0.00279709 0.000359096 0.00144773
95 2 3.46729 4.73217 8.47612 -0.0165628 0.00820847 0.00108555
96 2 5.64093 6.17959 5.48815 -0.0153578 0.0105462 0.0240349
ITEM: TIMESTEP
3
ITEM: NUMBER OF ATOMS
96
ITEM: BOX BOUNDS pp pp pp
2.9236100000000000e+00 1.2773600000000000e+01
4.0306300000000004e+00 1.3880599999999999e+01
2.1372399999999998e+00 1.1987200000000000e+01
ITEM: ATOMS id type x y z vx vy vz
1 1 7.29355 12.6541 3.20884 -4.78767e-05 -0.00137923 -0.00331666
2 2 6.58551 12.1517 2.82633 -0.00526276 0.0043565 -0.00671064
3 2 9.25229 13.16 11.1914 0.0206493 -0.00843255 -0.00413481
4 1 12.4181 10.1087 2.30877 0.000821767 0.00344669 0.00392283
5 2 11.614 10.6119 11.8258 0.0180349 -0.00965826 -0.00160608
6 2 12.0599 9.39267 2.79026 -0.014272 0.00011458 0.00069089
7 1 12.1879 7.72359 3.96302 -0.00111545 -0.00287562 -0.00727829
8 2 11.306 7.25018 4.11654 -0.0269927 0.0124483 0.0132779
9 2 8.02145 8.38534 8.20697 0.00525966 -0.0176205 0.0127272
10 1 7.3996 7.82906 8.74392 -0.00442139 -0.00968435 -0.00219262
11 2 6.83124 7.53546 7.98574 -0.0415938 0.00413919 -0.0128264
12 2 6.70952 9.2086 9.29253 0.00422797 -0.010418 0.00366051
13 1 5.73701 8.64886 2.26956 -0.00439391 -0.00124335 0.00205962
14 2 6.09912 8.86119 11.2902 0.013573 0.00146188 -0.0181088
15 2 5.48552 7.81263 2.23877 -0.0138829 -0.0255378 0.00822602
16 1 9.72765 8.0187 10.996 -0.000339081 0.000548689 0.00542703
17 2 9.70942 7.56773 11.8612 0.0162597 0.00906771 -0.0259099
18 2 8.83602 7.79186 10.6487 0.0192348 -0.0171827 -0.0202099
19 1 4.76456 5.71754 11.4755 -0.000914961 -0.00300739 -0.00202826
20 2 4.52049 5.54308 2.55181 -0.0123834 0.00137475 -0.011966
21 2 11.3874 8.92864 10.1487 4.55536e-05 0.0134118 -0.00782982
22 1 9.96053 10.8075 11.6162 -0.00255802 -0.000611921 6.80921e-05
23 2 9.73255 10.8079 2.71035 0.0183593 0.0207594 -0.000533792
24 2 9.82408 9.91207 11.3371 -0.00989163 -0.0155686 -0.0217121
25 1 3.39736 8.35628 6.36183 -0.00349828 -0.000218298 0.00276509
26 2 3.79069 9.26776 6.36244 0.00262693 0.00957212 -0.0261132
27 2 3.54999 6.57828 4.02696 0.014951 0.032776 0.00901043
28 1 9.5241 7.13466 4.21604 0.00371402 0.00921089 -0.00767424
29 2 9.15434 6.84817 5.05444 -0.00147747 0.00239244 -0.000383091
30 2 9.22899 8.04187 4.09152 0.00702602 0.00289562 0.00310241
31 1 3.78418 11.2668 5.78118 0.00307127 -5.18215e-05 0.00435255
32 2 3.30825 12.7167 5.18024 -0.0101002 0.017141 -0.0187684
33 2 4.35189 11.132 4.99771 -0.00452494 0.00745944 0.00474409
34 1 7.76734 5.02888 9.07912 0.000747889 -0.00174019 0.00544681
35 2 7.99396 4.0492 9.21169 -0.00201657 0.00491849 0.00686034
36 2 7.53045 5.47311 9.89688 -0.0287914 -0.00772389 0.000794106
37 1 8.02674 12.0549 10.1391 0.000322199 0.00752294 -0.00168476
38 2 9.27021 12.0837 8.98513 0.0265533 0.00375207 0.00583621
39 2 8.5901 11.6096 10.8215 0.000188669 -0.0190422 0.00364628
40 1 12.6596 13.604 5.28016 0.00379068 0.000796279 0.000936306
41 2 3.60076 5.00198 4.36289 -0.00229588 -0.00340079 -0.00438921
42 2 11.7586 13.3101 5.05879 -0.0110801 0.0117544 0.00862014
43 1 4.19546 5.81898 4.21381 0.00105294 0.0049406 -0.00122296
44 2 12.3697 8.13548 4.82431 0.0121797 -0.0229527 0.0199603
45 2 7.33154 12.3338 4.11844 -0.0167623 -0.0463136 -0.0162176
46 1 9.46546 12.3532 8.04232 -0.00438966 -0.00239335 0.0011531
47 2 8.28021 12.1641 6.87613 -0.00406192 -0.0282867 0.0194953
48 2 10.2508 11.8174 7.76487 -0.0128188 0.0179599 0.0045312
49 1 10.4428 6.70339 8.53477 -0.0027859 -0.000479966 0.00324298
50 2 9.51185 6.4998 8.47944 0.0256605 0.00488615 -0.0239432
51 2 10.4478 7.28153 9.31224 0.0184003 -0.0170617 -0.00410628
52 1 9.20946 10.3337 4.40716 0.00272409 -0.00453355 -0.00147305
53 2 8.90454 10.0736 5.30241 -0.0168258 0.00835898 0.00527467
54 2 8.90597 11.2646 4.31541 -0.01353 0.0063051 -0.00621793
55 1 4.87455 11.0328 3.29139 0.00724233 0.00188177 0.00203776
56 2 5.22627 10.1686 2.98807 0.00470435 -0.00919754 0.00241278
57 2 3.91567 11.0313 2.94154 -0.00572864 0.0244208 -0.0185581
58 1 6.23096 10.1373 9.46303 0.000316294 0.00266556 0.000929091
59 2 5.03336 13.0864 7.7857 0.00159397 -0.00941505 -0.0186211
60 2 7.3926 11.3068 9.89497 0.0195467 -0.00104426 0.019312
61 1 8.29326 5.28593 6.42059 0.00199751 -0.00276393 0.00296747
62 2 8.50811 5.4997 7.33392 -0.0366422 0.0134874 -0.00837999
63 2 7.49799 5.78787 6.18238 -0.0159889 0.00587174 -0.00872978
64 1 5.47633 12.2312 7.54858 0.00389009 0.000776468 -0.00675518
65 2 4.5963 11.6768 6.52209 -0.0287007 -0.000374494 -0.0496112
66 2 3.5398 4.51268 6.98877 0.0333159 -0.00913372 0.0187184
67 1 11.6321 10.5907 7.46206 0.00171955 -0.004034 0.00148946
68 2 12.3299 10.4334 6.80101 0.000572771 -0.00608032 0.0110674
69 2 11.9334 10.0528 8.20848 0.0271379 0.0253792 0.0201727
70 1 10.0159 13.3187 4.23707 0.00403759 0.00173133 0.00446619
71 2 9.85594 13.6531 3.3299 0.0163786 -0.00334392 0.00871895
72 2 9.11269 13.4167 4.6337 -0.0212537 -0.0153375 0.00789488
73 1 9.3248 9.30119 7.03433 0.001613 -0.00310904 -0.00275108
74 2 9.78583 8.47458 6.90069 0.0152306 -0.0073616 0.0167456
75 2 10.0272 9.94532 7.24339 -0.0104024 -0.0217681 0.00790687
76 1 12.1978 4.92454 9.90888 -0.000988073 0.00120463 0.00217572
77 2 11.7284 5.44656 9.21933 0.000860724 0.0217068 -0.00455463
78 2 3.95693 5.57557 10.8956 -0.0136494 -0.01386 -0.00169813
79 1 12.1583 8.86803 9.69054 -0.00451582 -0.00602969 0.00263543
80 2 2.93234 9.21464 10.3551 -0.0390873 0.0132451 0.0163837
81 2 6.0147 10.5624 8.63803 -0.019622 0.0245731 0.00315735
82 1 7.58645 5.50267 11.6754 -0.00313316 0.00397433 0.00138532
83 2 7.66798 4.63481 2.32128 0.00146341 0.0138123 -0.00659995
84 2 6.63639 5.65918 11.7286 0.0023402 0.0171677 -0.00988633
85 1 9.79818 4.10757 11.33 -0.00269362 0.000902467 0.00020991
86 2 9.23781 4.90033 10.9854 0.00248653 -0.0137922 0.0148693
87 2 11.4709 4.51606 10.4553 0.0274015 0.0193194 -0.018066
88 1 7.66815 12.5143 6.08679 0.00835116 -3.54768e-06 -0.00935985
89 2 6.37721 12.5141 6.89811 -0.0391188 -0.0209008 0.0103826
90 2 7.89608 13.5676 6.06754 0.0205783 -0.00444463 0.0179747
91 1 5.95213 6.47327 6.34498 -0.00563804 0.00378608 0.000327998
92 2 4.17544 7.71986 6.27687 0.0136928 0.0109016 -0.0149033
93 2 5.48301 5.89181 6.91891 -0.00677165 -0.0144622 0.00248127
94 1 4.11749 4.68883 7.72166 0.00262884 0.000388595 0.00168536
95 2 3.4599 4.73621 8.47677 -0.0127279 0.00791425 0.00124139
96 2 5.63284 6.18493 5.49908 -0.0171617 0.0106731 0.0187472
ITEM: TIMESTEP
4
ITEM: NUMBER OF ATOMS
96
ITEM: BOX BOUNDS pp pp pp
2.9236100000000000e+00 1.2773600000000000e+01
4.0306300000000004e+00 1.3880599999999999e+01
2.1372399999999998e+00 1.1987200000000000e+01
ITEM: ATOMS id type x y z vx vy vz
1 1 7.29356 12.6534 3.2072 7.2909e-05 -0.00131452 -0.00323358
2 2 6.58234 12.1536 2.82298 -0.00728625 0.00352023 -0.0069218
3 2 9.26297 13.1568 11.1893 0.0217864 -0.0046887 -0.00433077
4 1 12.4186 10.1105 2.31068 0.000982873 0.00371859 0.00372233
5 2 11.6233 10.6075 11.8249 0.0187086 -0.00768952 -0.00210858
6 2 12.0528 9.39118 2.79176 -0.0142514 -0.0058511 0.0052007
7 1 12.1873 7.72212 3.95934 -0.00146362 -0.00300839 -0.00734294
8 2 11.2927 7.25658 4.12268 -0.0258658 0.0133261 0.0110046
9 2 8.02424 8.37615 8.21413 0.00593542 -0.0190694 0.0156177
10 1 7.39739 7.82429 8.74271 -0.00445885 -0.00940734 -0.00266011
11 2 6.81048 7.5372 7.98047 -0.040745 0.00314834 -0.00773858
12 2 6.7108 9.20462 9.29387 0.000689283 -0.00510856 0.0015015
13 1 5.73488 8.64846 2.27072 -0.00411137 -0.000463647 0.00250256
14 2 6.10631 8.86221 11.2794 0.0144329 0.00201241 -0.0237818
15 2 5.47726 7.79561 2.24231 -0.0184572 -0.0404115 0.00576945
16 1 9.7274 8.01895 10.9987 -0.000644018 0.000499329 0.00548795
17 2 9.71755 7.57257 11.8476 0.0160437 0.00960548 -0.027147
18 2 8.84654 7.78346 10.6389 0.0224996 -0.0165307 -0.019036
19 1 4.76407 5.71605 11.4744 -0.00105044 -0.00295343 -0.00253965
20 2 4.5138 5.5437 2.54661 -0.0143106 0.00111263 -0.00857588
21 2 11.3843 8.93516 10.146 -0.0127524 0.0125894 -0.00289035
22 1 9.95925 10.8073 11.6161 -0.00258705 -0.000281663 -0.000153379
23 2 9.74157 10.8184 2.71094 0.0176417 0.0205994 0.00279529
24 2 9.81886 9.90247 11.3256 -0.0109225 -0.0218264 -0.023275
25 1 3.39572 8.35617 6.3632 -0.003041 -0.000211601 0.002675
26 2 3.79171 9.27116 6.34913 0.00121883 0.00379744 -0.0270346
27 2 3.55743 6.59476 4.03164 0.0148086 0.0325618 0.00975493
28 1 9.52598 7.13927 4.21217 0.0038099 0.00918732 -0.00777335
29 2 9.15354 6.84949 5.05411 -0.001566 0.0029679 -0.00123296
30 2 9.23244 8.04329 4.09366 0.0067222 0.00313232 0.00536066
31 1 3.78588 11.2668 5.7834 0.0037094 3.15541e-05 0.00453016
32 2 3.30406 12.7252 5.17144 -0.00664614 0.016875 -0.01658
33 2 4.34927 11.1352 4.99921 -0.00585893 0.00536271 0.000595957
34 1 7.76778 5.0279 9.08174 0.00100704 -0.00213933 0.00503737
35 2 7.99232 4.05362 9.21562 -0.00444062 0.0123476 0.00887289
36 2 7.51602 5.46867 9.89805 -0.0289026 -0.00999717 0.0037997
37 1 8.02689 12.0586 10.1383 0.000328123 0.0072659 -0.00155448
38 2 9.28301 12.0856 8.98806 0.0244206 0.00382522 0.00612577
39 2 8.59056 11.6004 10.8237 0.00169569 -0.01745 0.00465968
40 1 12.6615 13.6044 5.2806 0.00370943 0.000664681 0.000819686
41 2 3.60019 5.0009 4.36106 4.58078e-05 -0.00043719 -0.00297342
42 2 11.752 13.3171 5.06294 -0.0148053 0.016127 0.00805465
43 1 4.19594 5.82139 4.21318 0.000874405 0.00467377 -0.00130208
44 2 12.3767 8.12457 4.83537 0.015545 -0.0209119 0.0236058
45 2 7.32302 12.3109 4.1102 -0.0171085 -0.0452756 -0.0166363
46 1 9.46332 12.3519 8.04285 -0.00421807 -0.00244844 0.00100083
47 2 8.27764 12.1507 6.88487 -0.00670327 -0.0247726 0.0146574
48 2 10.244 11.8268 7.76724 -0.0137775 0.0190253 0.00455345
49 1 10.4414 6.70313 8.5364 -0.00277739 -0.000537748 0.00321409
50 2 9.52438 6.50189 8.46736 0.0232968 0.0033753 -0.0242564
51 2 10.4576 7.27309 9.31007 0.0205156 -0.0163077 -0.00402431
52 1 9.21077 10.3314 4.40644 0.00248085 -0.00441251 -0.0014017
53 2 8.89662 10.078 5.30473 -0.0146658 0.00920417 0.00366661
54 2 8.89953 11.267 4.3128 -0.0119937 0.00270872 -0.00429074
55 1 4.87809 11.0338 3.2924 0.00689661 0.00202451 0.00200162
56 2 5.22873 10.1639 2.98938 0.00485532 -0.00930287 0.0028692
57 2 3.91381 11.0434 2.93263 -0.000929216 0.0236762 -0.0168224
58 1 6.23118 10.1385 9.46355 0.000546075 0.00236418 0.00114746
59 2 5.03395 13.0822 7.77619 0.000636692 -0.00720944 -0.0191164
60 2 7.40155 11.3064 9.90397 0.0158107 -0.000637966 0.0162767
61 1 8.29437 5.28448 6.42199 0.00240582 -0.00297094 0.00259077
62 2 8.48946 5.50604 7.3308 -0.037648 0.0118603 -0.00357414
63 2 7.48868 5.79151 6.17796 -0.020664 0.00819455 -0.00898398
64 1 5.47842 12.2316 7.54516 0.00443599 0.0006909 -0.00690446
65 2 4.57983 11.676 6.49647 -0.0367498 -0.00239072 -0.0521057
66 2 3.5562 4.50777 6.99674 0.0315599 -0.010699 0.0122884
67 1 11.6329 10.5887 7.46283 0.00177703 -0.00393657 0.00162617
68 2 12.3302 10.4307 6.80577 0.000620575 -0.00458071 0.00791634
69 2 11.9469 10.065 8.21953 0.0264732 0.0233633 0.0237192
70 1 10.0178 13.3196 4.2393 0.00363157 0.00181071 0.00451979
71 2 9.86465 13.6512 3.33431 0.0182656 -0.00386964 0.00877023
72 2 9.10337 13.4087 4.63758 -0.0154017 -0.0164714 0.00723356
73 1 9.32553 9.29961 7.03293 0.00128717 -0.00325008 -0.00284361
74 2 9.79373 8.47055 6.90917 0.0160949 -0.00862106 0.0172021
75 2 10.0223 9.93471 7.24736 -0.00889738 -0.0200602 0.00816058
76 1 12.1972 4.92513 9.90999 -0.00108562 0.00120651 0.00219004
77 2 11.7285 5.45753 9.21759 -2.03242e-05 0.0218705 -0.00213404
78 2 3.951 5.5686 10.8958 -0.00974036 -0.0139258 0.00224485
79 1 12.1562 8.86505 9.69179 -0.0037745 -0.0058996 0.00236506
80 2 12.7631 9.2212 10.363 -0.0371059 0.0130769 0.015513
81 2 6.00485 10.5746 8.63919 -0.0195309 0.0237481 0.00197317