ITEM: TIMESTEP
0
ITEM: NUMBER OF ATOMS
96
ITEM: BOX BOUNDS pp pp pp
2.9236100000000000e+00 1.2773600000000000e+01
4.0306300000000004e+00 1.3880599999999999e+01
2.1372399999999998e+00 1.1987200000000000e+01
ITEM: ATOMS id type x y z vx vy vz
1 1 6.92538 6.73618 3.66911 0.00261009 -0.0052683 -0.000312246
2 2 6.3226 6.11124 3.90733 -0.003845 -0.0102125 0.0115725
3 2 9.39267 4.70995 2.78929 0.0107053 0.00845858 -0.0202045
4 1 3.97332 11.8411 11.9417 -0.0039354 0.000880412 0.00557695
5 2 4.3449 12.3158 2.84027 -0.0211421 -0.00269975 -0.00504346
6 2 2.99957 11.6708 2.19367 -0.0181475 -0.00115394 -0.0168124
7 1 12.2815 6.64397 3.42224 0.000833108 0.00524904 -0.00343052
8 2 11.4835 6.387 2.96777 0.00914385 0.00207666 -0.014575
9 2 7.87761 9.98459 8.46248 0.00373889 -0.00395048 -0.000732072
10 1 7.30534 9.8445 9.23037 0.00270141 -0.00431223 0.00376768
11 2 6.38154 10.026 8.95485 -0.000952488 0.00409427 -0.00960433
12 2 6.97435 10.7566 10.946 0.0029484 0.00561386 -0.0313136
13 1 4.0163 7.98166 11.5704 0.000797117 -0.0011464 -0.000958643
14 2 4.18006 7.38667 10.8111 0.0131603 -0.00315779 0.0114515
15 2 3.53618 7.50657 2.41849 -0.0121613 0.00289787 -0.000455814
16 1 11.2051 8.77544 10.9151 0.0043418 -0.000880602 0.00340172
17 2 11.9603 9.2589 9.30952 0.000992578 -0.014356 0.00492082
18 2 12.1163 8.49466 11.1495 -0.0306664 -0.0126039 -0.019367
19 1 3.48009 4.27038 10.5852 -0.00376162 0.000110894 0.00194197
20 2 3.71206 13.1945 10.9403 -0.00361022 0.00258063 -0.00693186
21 2 3.98124 5.82995 9.49786 -0.00562281 -0.00940162 -0.00727749
22 1 11.0227 11.2023 2.43273 -0.00454651 -0.00262615 0.00258054
23 2 10.5456 11.1538 3.35264 0.000528101 -0.0118592 0.015284
24 2 10.9912 9.56131 11.4565 0.0158852 -0.0209254 0.017711
25 1 12.2985 7.61286 6.36355 -0.00211727 -0.00124013 0.000264489
26 2 2.92754 8.32519 5.89164 -0.0348287 0.0115703 -0.0103861
27 2 4.44321 4.42258 2.79016 -0.0103645 0.020017 -0.00326805
28 1 9.22464 8.7314 4.11191 -0.00234237 -0.00201921 0.00545907
29 2 8.38737 8.24299 4.31716 -0.00756808 0.00735668 0.00677922
30 2 9.16258 9.46285 4.75079 -0.00887074 0.00938691 0.0250074
31 1 4.23858 9.74436 5.29161 -0.00509053 0.0011913 -7.71197e-05
32 2 3.71515 10.534 5.14421 -0.00915418 -0.0301117 -0.00516565
33 2 4.75216 9.63099 4.43413 0.0148477 0.00822004 -0.00128058
34 1 6.94481 13.3309 7.79449 0.00956998 -0.00500578 0.000843648
35 2 5.93782 13.1028 7.8919 -0.0181109 -0.026827 -0.00774162
36 2 6.96265 4.48144 7.84104 0.00475573 -0.014227 0.0271258
37 1 9.16505 12.7429 11.0819 -0.00225946 -0.000731629 0.00650118
38 2 9.30856 12.7436 10.1171 -0.0184202 -0.00717493 0.00533113
39 2 10.5451 11.8986 11.7532 -0.00568793 -0.00695707 -0.0169839
40 1 12.734 12.3532 4.85267 -0.00501154 0.00534438 0.00312953
41 2 4.12607 13.748 4.29153 -0.0150063 -0.00371824 0.0091605
42 2 11.9284 12.9298 4.81859 -0.0139509 -0.0203754 -0.00868111
43 1 4.78563 4.30364 3.69824 0.00336432 -0.00379673 0.00099719
44 2 11.9664 7.08905 4.26814 0.0124861 -0.00472066 -0.0395451
45 2 6.3954 7.5687 3.65764 0.00844314 -0.00883851 -0.00494894
46 1 9.63613 12.687 8.22135 0.000447364 0.00566023 0.000407928
47 2 8.66227 12.9367 8.17395 0.00715823 0.0345361 -0.0129037
48 2 9.57318 11.7223 8.25939 -0.0220321 -0.0481061 0.00114186
49 1 9.80184 6.52123 9.75271 -0.00424098 0.00372277 -3.34505e-07
50 2 9.96379 5.93004 10.5206 0.0133497 -0.00620382 -0.0198628
51 2 10.2009 7.34207 10.0393 -0.0191886 0.00949017 0.00299507
52 1 9.37472 11.4045 4.95673 0.00148967 0.000506506 -0.00167335
53 2 8.46784 11.7161 4.86805 0.0112536 0.02028 -0.0288629
54 2 9.86452 12.2292 5.24601 0.0351827 0.00133933 -0.000219682
55 1 5.90616 9.35461 3.23565 -0.00070551 -0.00511978 -0.00319704
56 2 5.23527 8.89683 2.59943 -0.0121198 -0.00599202 -0.00266203
57 2 6.07884 10.2048 2.81245 -0.0196516 0.00708768 0.00888803
58 1 6.65431 11.585 11.3696 0.00322488 -0.000931466 -0.00288902
59 2 4.27299 11.8599 7.92134 -0.00279239 0.0326336 -0.0167878
60 2 8.29082 12.3269 11.2229 0.024969 -0.0108627 0.0166933
61 1 6.70271 6.1882 7.27601 0.00290892 -0.000103162 0.000233251
62 2 6.4473 6.70986 8.06162 0.00457706 0.025945 0.0193372
63 2 5.94227 5.91895 6.72616 -0.0161997 0.0144581 0.00444698
64 1 4.71554 10.427 7.90833 0.0023748 0.00169029 -0.0055984
65 2 4.69451 10.2677 6.87682 0.0202944 -0.0108895 -0.00839895
66 2 3.54055 12.6311 5.54164 0.00391218 0.0104406 -0.00663002
67 1 12.1836 9.32385 8.31432 0.00158793 0.0029183 -0.0095769
68 2 12.3144 8.36887 7.96736 -0.00407826 -0.0225261 0.00781593
69 2 3.89549 9.89363 8.21502 -0.00637639 0.0110133 -0.0142562
70 1 10.312 4.10765 5.21656 0.00231632 -0.00504891 -0.00163853
71 2 10.2899 4.53502 4.34752 0.00613388 -0.0373775 -0.00704197
72 2 9.75095 4.63586 5.74148 -0.0168434 -0.00582312 -0.00607992
73 1 9.3016 9.72159 7.32896 0.00482124 0.00248674 0.00340419
74 2 10.0443 9.08807 7.42381 0.00806343 0.00897102 -0.0123831
75 2 9.40184 10.1129 6.51249 0.0128793 0.00738964 0.0174956
76 1 11.8107 4.57123 8.41545 -0.00436897 -0.00192754 0.000358062
77 2 11.3741 5.30063 8.84276 -0.0139437 0.00153098 -0.000118534
78 2 2.93555 4.04215 9.82214 -0.0236328 0.000112359 -0.0137603
79 1 4.56402 6.63031 9.36751 -0.000409549 0.00161288 -0.000748307
80 2 5.47389 6.30988 9.45708 0.00885139 0.0245716 -0.0059538
81 2 5.72975 11.5829 11.1613 0.000165879 -0.00785104 0.0124038
82 1 7.25626 7.21282 9.68666 0.00621712 0.00472172 0.00089775
83 2 8.22571 6.93757 9.96506 0.0131933 -0.00881652 0.0234038
84 2 7.20504 8.28338 9.65636 -0.00345023 -0.00311096 0.00590084
85 1 9.72991 5.57256 2.6498 0.00368843 0.000922816 0.00132773
86 2 9.04646 6.16022 2.96496 0.0128087 -0.00212916 -0.0158477
87 2 11.1257 13.7807 8.07818 0.000423004 0.0166736 -0.0120061
88 1 6.90255 12.7324 5.0124 -0.00360363 0.00437843 0.00164171
89 2 7.04967 13.2868 5.8402 -0.0157057 -0.00878806 -0.0200143
90 2 6.64618 13.383 4.37363 0.00589525 -0.0153181 -0.0314496
91 1 4.26158 5.68742 5.92556 -0.00321831 0.0029369 0.00076934
92 2 3.04458 6.79909 6.45548 -0.0223538 -0.0121145 -0.0275936
93 2 4.03403 4.81211 6.27189 -0.00163483 0.00568409 0.00102497
94 1 4.35042 12.9736 7.49345 6.96897e-05 0.00133045 0.000860173
95 2 3.79283 13.563 8.08124 0.0172039 0.0224057 -0.00536256
96 2 4.1089 5.61111 4.94174 0.0111116 -0.00504918 0.016224
ITEM: TIMESTEP
1
ITEM: NUMBER OF ATOMS
96
ITEM: BOX BOUNDS pp pp pp
2.9236100000000000e+00 1.2773600000000000e+01
4.0306300000000004e+00 1.3880599999999999e+01
2.1372399999999998e+00 1.1987200000000000e+01
ITEM: ATOMS id type x y z vx vy vz
1 1 6.92678 6.73368 3.66893 0.00295169 -0.0047674 -0.000397107
2 2 6.31891 6.1041 3.91371 -0.0104124 -0.0177347 0.0137642
3 2 9.39736 4.7135 2.77894 0.00781682 0.00528867 -0.021102
4 1 3.97134 11.8415 11.9444 -0.00402906 0.000725603 0.0051274
5 2 4.33339 12.3146 2.8384 -0.0246996 -0.00191664 -0.00195549
6 2 2.9911 11.6705 2.18632 -0.0154247 -7.23767e-05 -0.0125867
7 1 12.2819 6.64663 3.42064 0.000904276 0.00534171 -0.00304951
8 2 11.4875 6.38796 2.96043 0.00656096 0.00175231 -0.0148297
9 2 7.87972 9.98236 8.46137 0.0046111 -0.00502478 -0.0034454
10 1 7.30664 9.84236 9.23235 0.00249503 -0.00423734 0.00411222
11 2 6.38136 10.0281 8.94944 0.000443403 0.00424381 -0.0118908
12 2 6.97587 10.7599 10.9304 0.00310453 0.00785949 -0.0310564
13 1 4.01672 7.98124 11.57 0.000869958 -0.000524622 -0.000813511
14 2 4.18704 7.38412 10.8158 0.0147658 -0.00708809 0.00749116
15 2 3.52949 7.50706 2.41904 -0.0144148 -0.000756276 0.00240175
16 1 11.2073 8.77499 10.9167 0.00432747 -0.000940524 0.00314384
17 2 11.9609 9.25137 9.31042 0.00149587 -0.0154397 -0.001827
18 2 12.1009 8.48857 11.1402 -0.0296525 -0.0121913 -0.0176435
19 1 3.47825 4.27035 10.5862 -0.00362731 -0.000248341 0.00201718
20 2 3.71062 13.1966 10.9374 -0.00218453 0.00574697 -0.00471315
21 2 3.97924 5.82571 9.49432 -0.00202995 -0.0073575 -0.00687965
22 1 11.0204 11.201 2.43412 -0.00468301 -0.00263895 0.00299373
23 2 10.5467 11.1481 3.35814 0.00365072 -0.0106426 0.00645325
24 2 10.9993 9.55118 11.4656 0.0165111 -0.0191343 0.01908
25 1 12.2974 7.61223 6.3637 -0.00224262 -0.00126541 0.000361456
26 2 12.7605 8.33034 5.88682 -0.0329574 0.00893238 -0.00892351
27 2 4.43739 4.43216 2.78946 -0.0127115 0.0182435 0.000880277
28 1 9.22337 8.73036 4.11472 -0.00274917 -0.00209036 0.00583559
29 2 8.38472 8.24694 4.31968 -0.00306731 0.00833317 0.00324342
30 2 9.15858 9.46743 4.76256 -0.00702055 0.00836381 0.0214944
31 1 4.23601 9.74494 5.2916 -0.00514709 0.00107071 1.94189e-05
32 2 3.70997 10.5196 5.14156 -0.0120011 -0.0266111 -0.00553591
33 2 4.76018 9.63496 4.43356 0.0171244 0.0076487 -0.000783016
34 1 6.94956 13.3285 7.79493 0.00936981 -0.00473619 0.000932082
35 2 5.92888 13.0892 7.88757 -0.0166722 -0.0272384 -0.00968376
36 2 6.96529 4.47409 7.85429 0.00563025 -0.0150869 0.0258138
37 1 9.16395 12.7426 11.0852 -0.00209161 -0.000628288 0.00650218
38 2 9.29943 12.7401 10.1196 -0.0179712 -0.00691342 0.00466501
39 2 10.5418 11.8948 11.7452 -0.00742869 -0.008571 -0.0148323
40 1 12.7315 12.3559 4.85423 -0.00484872 0.00538592 0.00311757
41 2 4.11835 13.7461 4.29477 -0.0153995 -0.00371439 0.00339392
42 2 11.9228 12.9192 4.81528 -0.00851356 -0.0216005 -0.0044823
43 1 4.78737 4.30177 3.69873 0.00353556 -0.00368524 0.000941822
44 2 11.9731 7.086 4.24712 0.0137854 -0.00679344 -0.0432836
45 2 6.40031 7.56369 3.65505 0.0110135 -0.0110186 -0.00538834
46 1 9.63626 12.6898 8.22159 6.77304e-05 0.005425 0.000569392
47 2 8.66671 12.9542 8.16725 0.0107054 0.0352871 -0.0138764
48 2 9.56269 11.6981 8.25958 -0.0199899 -0.0466311 -0.000451433
49 1 9.79974 6.52303 9.75271 -0.00416765 0.00347597 -1.15548e-05
50 2 9.97009 5.927 10.5108 0.0119176 -0.00601032 -0.0192079
51 2 10.1917 7.34771 10.041 -0.0176722 0.0129381 0.00375941
52 1 9.37553 11.4048 4.9559 0.00175378 0.00063478 -0.00162639
53 2 8.47241 11.7263 4.85346 0.00728756 0.0205737 -0.0293894
54 2 9.88216 12.2294 5.24576 0.0348205 -0.00112901 -0.000959323
55 1 5.90574 9.352 3.23398 -0.00100385 -0.00530899 -0.00347436
56 2 5.23007 8.89432 2.59879 -0.00861279 -0.00401567 0.000120092
57 2 6.06918 10.2088 2.81689 -0.0189936 0.0086693 0.00886263
58 1 6.65599 11.5845 11.3682 0.00346696 -0.00119407 -0.00288638
59 2 4.27185 11.8802 7.91129 -0.00189913 0.047611 -0.0229741
60 2 8.30321 12.3215 11.2313 0.0238816 -0.0112246 0.0171776
61 1 6.70423 6.18809 7.2761 0.00310766 -0.00030782 0.000172354
62 2 6.44948 6.7227 8.07102 0.00456409 0.024783 0.0173003
63 2 5.93373 5.92694 6.72903 -0.0175383 0.0176053 0.00731487
64 1 4.71673 10.4278 7.90546 0.00239581 0.00165212 -0.0059093
65 2 4.70502 10.2624 6.87345 0.0216712 -0.0101311 -0.00482373
66 2 3.5408 12.6365 5.53814 -0.00293504 0.011209 -0.00729056
67 1 12.1844 9.32524 8.30962 0.00160561 0.0025982 -0.0091794
68 2 12.312 8.35891 7.97124 -0.00550225 -0.0166583 0.00760342
69 2 3.89152 9.89921 8.20829 -0.0093204 0.0113191 -0.0127062
70 1 10.3132 4.10509 5.21569 0.00255687 -0.00520669 -0.00180541
71 2 10.2929 4.51653 4.34423 0.00559124 -0.0363058 -0.00639403
72 2 9.74188 4.63361 5.73902 -0.0192118 -0.0033761 -0.00415721
73 1 9.30401 9.72275 7.3308 0.00482019 0.00213801 0.00397241
74 2 10.0481 9.09327 7.41746 0.00724223 0.011609 -0.0128341
75 2 9.40876 10.1177 6.51911 0.0147371 0.0118579 0.00874765
76 1 11.8086 4.57021 8.41559 -0.00412068 -0.00211049 0.000225727
77 2 11.3661 5.3014 8.84262 -0.0176975 0.00140517 -0.00052256
78 2 12.7729 4.043 9.81431 -0.0264553 0.00343553 -0.0167131
79 1 4.56375 6.63106 9.36711 -0.000664967 0.00136177 -0.000860448
80 2 5.47832 6.32242 9.45449 0.00868968 0.0254111 -0.00437203
81 2 5.72882 11.5793 11.1675 -0.00378532 -0.00643601 0.012392
82 1 7.25939 7.21527 9.68715 0.00630833 0.00503819 0.00104734
83 2 8.23078 6.93399 9.97585 0.00682467 -0.0053452 0.0196373
84 2 7.2041 8.27905 9.65923 -0.00023176 -0.0138632 0.00561082
85 1 9.73182 5.57307 2.65045 0.00397779 0.00113268 0.00125401
86 2 9.05233 6.15903 2.95718 0.010196 -0.00232331 -0.0150511
87 2 11.126 13.79 8.07286 0.000493711 0.0200124 -0.00948235
88 1 6.90081 12.7346 5.01331 -0.00337691 0.00454173 0.00192099
89 2 7.04142 13.2811 5.82946 -0.0171909 -0.0131619 -0.0221983
90 2 6.64851 13.3755 4.35743 0.00348822 -0.0148132 -0.0329662
91 1 4.25996 5.6889 5.9259 -0.00325116 0.00297564 0.000648734
92 2 3.03344 6.79401 6.44116 -0.0219457 -0.00822435 -0.0296589
93 2 4.03328 4.81482 6.27255 -0.0014164 0.00501628 0.00172484
94 1 4.35038 12.9741 7.49402 -0.000187203 0.000728735 0.00136402
95 2 3.80227 13.5725 8.07766 0.0202432 0.015841 -0.00861977
96 2 4.1147 5.60853 4.95058 0.0119781 -0.00526458 0.0183776
ITEM: TIMESTEP
2
ITEM: NUMBER OF ATOMS
96
ITEM: BOX BOUNDS pp pp pp
2.9236100000000000e+00 1.2773600000000000e+01
4.0306300000000004e+00 1.3880599999999999e+01
2.1372399999999998e+00 1.1987200000000000e+01
ITEM: ATOMS id type x y z vx vy vz
1 1 6.92833 6.73141 3.66871 0.00323309 -0.00439175 -0.000451357
2 2 6.31219 6.09351 3.92109 -0.0156532 -0.0236891 0.015423
3 2 9.40049 4.71524 2.76819 0.00452218 0.00142917 -0.0218805
4 1 3.96929 11.8418 11.9468 -0.00418145 0.000524665 0.00462629
5 2 4.3202 12.3139 2.83831 -0.0278413 -0.000526573 0.00201579
6 2 2.98415 11.6707 2.18108 -0.0121669 0.00108097 -0.00839511
7 1 12.2824 6.64931 3.41919 0.00105304 0.00533653 -0.00283346
8 2 11.4901 6.38875 2.95294 0.00380808 0.00142209 -0.0151228
9 2 7.88222 9.97957 8.45903 0.0052396 -0.00619937 -0.00551625
10 1 7.30784 9.84026 9.23448 0.00226974 -0.00412522 0.00438586
11 2 6.38198 10.0302 8.94296 0.00225081 0.00421812 -0.0138565
12 2 6.97745 10.7645 10.9149 0.00319729 0.0103982 -0.0305458
13 1 4.01717 7.98114 11.5696 0.000940543 7.14138e-05 -0.000639136
14 2 4.19483 7.37958 10.8186 0.0163172 -0.0109615 0.00365677
15 2 3.52177 7.50581 2.42089 -0.0162146 -0.00395005 0.00460209
16 1 11.2094 8.7745 10.9182 0.00415604 -0.000998336 0.00281584
17 2 11.9618 9.24346 9.30769 0.00216824 -0.0158803 -0.00923792
18 2 12.0866 8.48247 11.1319 -0.0260596 -0.0126849 -0.0152818
19 1 3.47646 4.27013 10.5872 -0.00357043 -0.000598143 0.00198119
20 2 3.70988 13.2002 10.9356 -0.000854456 0.00867599 -0.00265405
21 2 3.97921 5.82259 9.49098 0.00214711 -0.00500869 -0.00643575
22 1 11.018 11.1997 2.43572 -0.00480896 -0.00264068 0.00338648
23 2 10.5493 11.1432 3.35909 0.00653713 -0.00912255 -0.00259904
24 2 11.0077 9.54218 11.4756 0.0168111 -0.0165635 0.020905
25 1 12.2963 7.61159 6.36391 -0.00243584 -0.00126127 0.000475711
26 2 12.7446 8.33412 5.88272 -0.0306696 0.00616889 -0.00756024
27 2 4.4305 4.44082 2.79104 -0.0146462 0.0163583 0.00566614
28 1 9.22189 8.72931 4.11775 -0.00315221 -0.00207511 0.00627626
29 2 8.3843 8.25132 4.3204 0.00120792 0.00904278 -0.000298591
30 2 9.15556 9.47121 4.77228 -0.00498337 0.00631064 0.0169656
31 1 4.23343 9.74543 5.29163 -0.00512677 0.000870081 9.21764e-05
32 2 3.70315 10.5074 5.13867 -0.0155964 -0.0219452 -0.00609232
33 2 4.76928 9.63864 4.43335 0.0191339 0.00711324 0.000172117
34 1 6.95418 13.3262 7.79542 0.00907252 -0.00453475 0.00103696
35 2 5.92115 13.0756 7.88222 -0.0132469 -0.0266699 -0.0117628
36 2 6.96828 4.46635 7.86685 0.00611841 -0.015721 0.0243835
37 1 9.16296 12.7423 11.0884 -0.0018445 -0.000487565 0.00649582
38 2 9.29059 12.7367 10.1218 -0.017313 -0.0065896 0.00367375
39 2 10.5377 11.89 11.7384 -0.00912865 -0.010503 -0.0120659
40 1 12.7292 12.3586 4.85579 -0.00465062 0.00537317 0.00307675
41 2 4.11067 13.7443 4.29492 -0.0148814 -0.00315887 -0.00301444
42 2 11.9199 12.9082 4.81411 -0.00371337 -0.0220929 -0.000199584
43 1 4.78917 4.29995 3.69918 0.00362597 -0.00360454 0.000881227
44 2 11.9802 7.08226 4.22486 0.0139474 -0.00739945 -0.0443011
45 2 6.40641 7.55768 3.65225 0.0131653 -0.0127675 -0.0058051
46 1 9.6362 12.6924 8.22192 -0.000321445 0.00496891 0.000737623
47 2 8.67298 12.972 8.16007 0.0143318 0.0354458 -0.0147936
48 2 9.55319 11.6757 8.25894 -0.0180609 -0.0410762 -0.00219707
49 1 9.79767 6.52471 9.7527 -0.00409408 0.00325858 -5.72691e-05
50 2 9.97571 5.92403 10.5014 0.0106184 -0.00585779 -0.0180828
51 2 10.1832 7.35501 10.0431 -0.0162021 0.015959 0.00461429
52 1 9.37647 11.4051 4.9551 0.00204143 0.00081119 -0.00157177
53 2 8.47513 11.7367 4.83866 0.00403197 0.0210116 -0.0296609
54 2 9.89934 12.2281 5.24505 0.0333479 -0.00434511 -0.00207342
55 1 5.90516 9.3493 3.23218 -0.00131277 -0.00547531 -0.0037456
56 2 5.22666 8.89281 2.59955 -0.0050862 -0.00205153 0.00285211
57 2 6.05985 10.2135 2.82131 -0.0183469 0.00992757 0.00882753
58 1 6.65778 11.5838 11.3667 0.00367844 -0.00148318 -0.00290379
59 2 4.27109 11.9075 7.89837 -0.00133607 0.0604729 -0.028067
60 2 8.3147 12.3157 11.2401 0.0215024 -0.012221 0.0180456
61 1 6.70582 6.18789 7.27618 0.00321301 -0.000446074 0.000203242
62 2 6.45186 6.73464 8.07892 0.00534962 0.0223992 0.0134391
63 2 5.92473 5.93656 6.73347 -0.0180305 0.0208844 0.0106302
64 1 4.71794 10.4287 7.90242 0.00240786 0.00158216 -0.00623875
65 2 4.71618 10.2576 6.872 0.0228975 -0.00924686 -0.000779042
66 2 3.53761 12.6423 5.53435 -0.00970045 0.0120492 -0.0076808
67 1 12.1852 9.32645 8.30514 0.00160882 0.00217951 -0.0087323
68 2 12.3089 8.35221 7.97496 -0.00683287 -0.00978092 0.00712244
69 2 3.88617 9.90495 8.20231 -0.0117964 0.0117438 -0.0113354
70 1 10.3146 4.10244 5.21475 0.00276888 -0.00537324 -0.0018867
71 2 10.2955 4.49871 4.34113 0.00480521 -0.0347257 -0.00625842
72 2 9.73174 4.63248 5.73732 -0.020997 -0.00142976 -0.00310662
73 1 9.30642 9.72373 7.33293 0.00481305 0.00180547 0.00451971
74 2 10.0515 9.09968 7.41098 0.00673629 0.0138 -0.0129312
75 2 9.41658 10.1248 6.52124 0.0163734 0.0165487 2.06254e-05
76 1 11.8066 4.56912 8.41568 -0.00385157 -0.00221285 0.000142348
77 2 11.3564 5.30204 8.84224 -0.0209776 0.0010208 -0.00112363
78 2 12.7591 4.04559 9.80543 -0.0280356 0.00696681 -0.0179324
79 1 4.56336 6.63167 9.36665 -0.000936382 0.00110706 -0.000969386
80 2 5.48258 6.33529 9.45271 0.00818092 0.025918 -0.0027031
81 2 5.72596 11.5765 11.1737 -0.00738829 -0.00496991 0.0125456
82 1 7.26257 7.21786 9.68771 0.0063957 0.00525427 0.0011999
83 2 8.23253 6.93222 9.9847 0.000188032 -0.00167381 0.0157108
84 2 7.20481 8.26952 9.66197 0.0030606 -0.0234966 0.00541444
85 1 9.73389 5.57369 2.65105 0.00434253 0.00134729 0.00114847
86 2 9.05666 6.1579 2.94991 0.00675606 -0.00199017 -0.0138703
87 2 11.1262 13.8007 8.0687 -0.000148335 0.0223088 -0.00740097
88 1 6.89917 12.7369 5.01432 -0.00317317 0.00460309 0.00203879
89 2 7.03248 13.2736 5.818 -0.0184126 -0.0158519 -0.0227412
90 2 6.64967 13.3682 4.34066 0.00125404 -0.0143911 -0.0336476
91 1 4.25833 5.6904 5.92621 -0.00325827 0.00302419 0.000609838
92 2 3.02263 6.79087 6.42582 -0.0210268 -0.00451195 -0.0316678
93 2 4.03261 4.81713 6.27361 -0.00127287 0.00415479 0.00257996
94 1 4.35023 12.9743 7.49481 -0.000369736 0.000226984 0.00175974
95 2 3.81307 13.5788 8.07262 0.0225563 0.00984014 -0.0110372
96 2 4.12088 5.60585 4.96012 0.0126271 -0.00546405 0.0189576
ITEM: TIMESTEP
3
ITEM: NUMBER OF ATOMS
96
ITEM: BOX BOUNDS pp pp pp
2.9236100000000000e+00 1.2773600000000000e+01
4.0306300000000004e+00 1.3880599999999999e+01
2.1372399999999998e+00 1.1987200000000000e+01
ITEM: ATOMS id type x y z vx vy vz
1 1 6.93001 6.72929 3.66848 0.003433 -0.00418232 -0.0004619
2 2 6.30325 6.08041 3.92914 -0.0191126 -0.0275574 0.0163283
3 2 9.40189 4.71493 2.75706 0.00102717 -0.00268285 -0.0226373
4 1 3.96716 11.842 11.949 -0.00437645 0.000289112 0.00409096
5 2 4.30555 12.314 2.84042 -0.03058 0.00133772 0.00666299
6 2 2.97893 11.6716 2.17792 -0.0085512 0.00224028 -0.00431299
7 1 12.283 6.65197 3.41781 0.00127344 0.00521793 -0.00280382
8 2 11.4913 6.38938 2.9453 0.00105729 0.00112519 -0.0153962
9 2 7.88496 9.97616 8.45585 0.00555136 -0.00747927 -0.00676356
10 1 7.30891 9.83823 9.23673 0.00203481 -0.00397524 0.0045748
11 2 6.38361 10.0323 8.93558 0.00439264 0.00401621 -0.0154635
12 2 6.97907 10.7703 10.8998 0.00322975 0.0130676 -0.0298932
13 1 4.01766 7.98131 11.5693 0.00099836 0.000612115 -0.000444509
14 2 4.20336 7.37316 10.8195 0.0177018 -0.0144682 0.000345175
15 2 3.51328 7.50311 2.42364 -0.0173583 -0.00651386 0.00586526
16 1 11.2114 8.77399 10.9196 0.00384109 -0.00103978 0.00243885
17 2 11.9631 9.23549 9.30118 0.00289248 -0.0156759 -0.0166725
18 2 12.0748 8.47589 11.1249 -0.020162 -0.014054 -0.0124137
19 1 3.47468 4.26975 10.5882 -0.00359181 -0.000921446 0.00183567
20 2 3.70976 13.2053 10.9347 0.000321023 0.0112287 -0.000835584
21 2 3.98138 5.8207 9.48788 0.00664405 -0.00262699 -0.00591869
22 1 11.0156 11.1983 2.43751 -0.00490697 -0.00263717 0.00373233
23 2 10.5532 11.139 3.35554 0.00894541 -0.00742044 -0.0112132
24 2 11.0162 9.53462 11.4865 0.0168655 -0.0135044 0.0230039
25 1 12.295 7.61097 6.36418 -0.0026953 -0.00121989 0.000609567
26 2 12.7299 8.33651 5.87926 -0.0280111 0.00344835 -0.00637082
27 2 4.42274 4.44852 2.79513 -0.0161797 0.0144352 0.0107495
28 1 9.22022 8.72829 4.121 -0.00352233 -0.00198395 0.00675182
29 2 8.38592 8.25598 4.31938 0.00487817 0.00932538 -0.00370723
30 2 9.1536 9.47374 4.77953 -0.00284729 0.00353691 0.0117448
31 1 4.23088 9.74581 5.29169 -0.00504273 0.000615357 0.00013411
32 2 3.69438 10.4977 5.13547 -0.0196021 -0.0165919 -0.00681612
33 2 4.77931 9.64207 4.43373 0.0207445 0.0066698 0.00166392
34 1 6.95863 13.3239 7.79597 0.00868916 -0.00440385 0.00115383
35 2 5.91563 13.0625 7.8758 -0.00785746 -0.0251381 -0.0138685
36 2 6.97141 4.45837 7.87867 0.00621869 -0.0160748 0.02286
37 1 9.16211 12.7421 11.0916 -0.00153419 -0.000314565 0.00647711
38 2 9.28212 12.7335 10.1233 -0.0165008 -0.00621819 0.00249544
39 2 10.5327 11.8843 11.7331 -0.0108205 -0.012575 -0.00892158
40 1 12.7269 12.3613 4.85731 -0.00441478 0.00529063 0.00299759
41 2 4.10346 13.7429 4.29175 -0.01362 -0.00219188 -0.00973633
42 2 11.9191 12.8971 4.81508 7.85886e-05 -0.0217067 0.00407996
43 1 4.79099 4.29817 3.69961 0.00364965 -0.00354793 0.000815831
44 2 11.987 7.0786 4.20282 0.0128905 -0.00634049 -0.0423161
45 2 6.41347 7.55092 3.64925 0.0147828 -0.0139614 -0.00619276
46 1 9.63594 12.6948 8.22233 -0.000702494 0.00433497 0.000911203
47 2 8.68104 12.9897 8.15245 0.0177999 0.0350126 -0.0156529
48 2 9.54463 11.657 8.25739 -0.0162674 -0.0321475 -0.00404964
49 1 9.79564 6.52629 9.75265 -0.00400944 0.00308525 -0.000125432
50 2 9.98071 5.92114 10.4927 0.00943933 -0.00567178 -0.016572
51 2 10.1755 7.36367 10.0456 -0.0148916 0.0182583 0.00546746
52 1 9.37757 11.4056 4.95433 0.00232626 0.00102774 -0.00151386
53 2 8.47644 11.7473 4.8238 0.00177432 0.0214843 -0.0296106
54 2 9.91551 12.225 5.24369 0.0308691 -0.00807363 -0.00350022
55 1 5.90442 9.34653 3.23024 -0.00161489 -0.00560311 -0.00399696
56 2 5.22498 8.89227 2.60164 -0.00179354 -0.000261856 0.00530499
57 2 6.05083 10.2187 2.82572 -0.0177197 0.010788 0.00881188
58 1 6.65966 11.583 11.3653 0.00384052 -0.00178625 -0.00293859
59 2 4.27051 11.9407 7.88322 -0.00123513 0.0704756 -0.0317151
60 2 8.32471 12.3092 11.2494 0.0180855 -0.0137513 0.0192351
61 1 6.70744 6.18764 7.2763 0.00323615 -0.000522831 0.000312382
62 2 6.45483 6.7451 8.08446 0.006824 0.0189895 0.00808369
63 2 5.91569 5.94783 6.73967 -0.0177809 0.0241811 0.0142156
64 1 4.71914 10.4294 7.89922 0.0024053 0.00147062 -0.00657077
65 2 4.72791 10.2532 6.87267 0.0239297 -0.00828891 0.00358134
66 2 3.5311 12.6486 5.53046 -0.0160821 0.01302 -0.00759377
67 1 12.186 9.32742 8.30089 0.00159757 0.00169216 -0.00826858
68 2 12.3052 8.34913 7.97836 -0.00797782 -0.00244624 0.00622207
69 2 3.87973 9.91095 8.19696 -0.0135654 0.0123895 -0.0102429
70 1 10.316 4.09972 5.2138 0.00293939 -0.0055327 -0.00188046
71 2 10.2977 4.48181 4.33797 0.00379852 -0.0327169 -0.00656403
72 2 9.72088 4.63218 5.73591 -0.0220181 -0.000146738 -0.00303271
73 1 9.30882 9.72455 7.33532 0.00480286 0.00152105 0.00498832
74 2 10.0548 9.10707 7.40453 0.00660603 0.0154928 -0.0126867
75 2 9.42514 10.1342 6.51913 0.0176649 0.0210265 -0.00779385
76 1 11.8047 4.568 8.41573 -0.00356574 -0.002225 0.000114493
77 2 11.3452 5.30242 8.8415 -0.023676 0.000382376 -0.00191185
78 2 12.7448 4.04997 9.79638 -0.0283216 0.0105674 -0.0173813
79 1 4.56282 6.63216 9.36614 -0.00121277 0.000865736 -0.00107711
80 2 5.4865 6.34834 9.45178 0.00739433 0.0260969 -0.000964784
81 2 5.72143 11.5743 11.18 -0.0103276 -0.00349193 0.0129009
82 1 7.26579 7.22052 9.68835 0.00645687 0.00534294 0.00135015
83 2 8.23097 6.93231 9.99156 -0.00616086 0.00191586 0.0118244
84 2 7.20716 8.25555 9.66464 0.00625002 -0.0312416 0.00529253
85 1 9.73616 5.57442 2.6516 0.00475586 0.0015493 0.00102472
86 2 9.05908 6.15704 2.94331 0.00271778 -0.0012916 -0.0124267
87 2 11.1259 13.8123 8.06545 -0.00152527 0.0234298 -0.00586641
88 1 6.89763 12.7392 5.01535 -0.00299442 0.00455632 0.00197376
89 2 7.023 13.2653 5.80672 -0.019351 -0.0166919 -0.0214312
90 2 6.64976 13.3611 4.32378 -0.000779773 -0.014128 -0.033381
91 1 4.2567 5.69192 5.92651 -0.00324058 0.00307757 0.00065837
92 2 3.01241 6.7895 6.4095 -0.0196083 -0.00118818 -0.0335677
93 2 4.032 4.81897 6.27513 -0.00118385 0.00320879 0.00353641
94 1 4.35001 12.9743 7.49578 -0.000466639 -0.000144054 0.00200606
95 2 3.82482 13.5823 8.06662 0.023883 0.00475879 -0.0123101
96 2 4.12733 5.60306 4.96954 0.0130609 -0.00566314 0.0179188
ITEM: TIMESTEP
4
ITEM: NUMBER OF ATOMS
96
ITEM: BOX BOUNDS pp pp pp
2.9236100000000000e+00 1.2773600000000000e+01
4.0306300000000004e+00 1.3880599999999999e+01
2.1372399999999998e+00 1.1987200000000000e+01
ITEM: ATOMS id type x y z vx vy vz
1 1 6.93176 6.72723 3.66825 0.00354325 -0.00416156 -0.000421549
2 2 6.29308 6.06595 3.93742 -0.0205721 -0.0291 0.0163599
3 2 9.40151 4.71256 2.74555 -0.00244439 -0.00655997 -0.0234584
4 1 3.96491 11.8421 11.9509 -0.0045949 3.43713e-05 0.00354422
5 2 4.28962 12.3152 2.84498 -0.0329592 0.00348883 0.0116948
6 2 2.97559 11.673 2.17677 -0.00477423 0.00333526 -0.000421496
7 1 12.2837 6.65453 3.41639 0.00155174 0.00497932 -0.00296621
8 2 11.4911 6.38988 2.93754 -0.00151372 0.000904018 -0.0155757
9 2 7.88777 9.97209 8.45227 0.00552929 -0.00886212 -0.00708386
10 1 7.30987 9.83629 9.23906 0.00179855 -0.00378888 0.00467142
11 2 6.38638 10.0343 8.9275 0.00676158 0.00364693 -0.0166815
12 2 6.98068 10.7775 10.8851 0.00320905 0.0156943 -0.0292166
13 1 4.01817 7.98175 11.5691 0.00103562 0.00107332 -0.000241722
14 2 4.21253 7.36511 10.8189 0.0188138 -0.0173325 -0.00211793
15 2 3.50441 7.4993 2.42676 -0.0177068 -0.00833938 0.00602284
16 1 11.2133 8.77346 10.9207 0.00341182 -0.00105342 0.00203983
17 2 11.9647 9.22778 9.29102 0.00354553 -0.0148531 -0.0234763
18 2 12.0665 8.46841 11.1194 -0.0124976 -0.0161473 -0.00921198
19 1 3.47287 4.26921 10.5891 -0.00368617 -0.00120083 0.00159072
20 2 3.7102 13.2115 10.9348 0.00130347 0.0132697 0.000692685
21 2 3.98585 5.81997 9.48506 0.0111916 -0.000485281 -0.00530418
22 1 11.0131 11.197 2.43946 -0.00495978 -0.00263548 0.00400591
23 2 10.5582 11.1357 3.34788 0.0106466 -0.00566119 -0.0187415
24 2 11.0246 9.52867 11.4986 0.0167796 -0.010303 0.025142
25 1 12.2936 7.61037 6.36452 -0.00301709 -0.00114114 0.000758464
26 2 12.7166 8.33757 5.87635 -0.0250317 0.000922293 -0.00541479
27 2 4.41432 4.45526 2.80179 -0.0173361 0.0125661 0.0157599
28 1 9.21837 8.72733 4.1245 -0.00383191 -0.00183155 0.00723109
29 2 8.38918 8.26065 4.3167 0.00759709 0.0090463 -0.00685431
30 2 9.15271 9.47475 4.78403 -0.000708954 0.000388935 0.00619934
31 1 4.22839 9.74605 5.29176 -0.00491377 0.000337051 0.000138952
32 2 3.68355 10.4908 5.13186 -0.0236089 -0.0110916 -0.00766712
33 2 4.79003 9.64531 4.43501 0.0218335 0.00636726 0.00373855
34 1 6.96287 13.3218 7.79658 0.00823597 -0.00434279 0.00127688
35 2 5.91329 13.0504 7.86835 -0.000670807 -0.02274 -0.015889
36 2 6.9745 4.45028 7.88971 0.00596021 -0.016081 0.021273
37 1 9.16142 12.742 11.0949 -0.00118297 -0.00011843 0.00644151
38 2 9.27409 12.7305 10.1243 -0.0156 -0.00581826 0.00130583
39 2 10.5269 11.8775 11.7294 -0.012548 -0.0146001 -0.0056513
40 1 12.7247 12.3639 4.85879 -0.00414101 0.00512651 0.00287191
41 2 4.09705 13.7421 4.28519 -0.0118278 -0.000981437 -0.0164013
42 2 11.92 12.8865 4.81819 0.00255871 -0.0203544 0.00827744
43 1 4.79282 4.29641 3.7 0.00362368 -0.00350791 0.000745909
44 2 11.9931 7.07592 4.18254 0.0106348 -0.00356261 -0.0373197
45 2 6.4212 7.54372 3.64606 0.015782 -0.0144906 -0.00655102
46 1 9.6355 12.6968 8.22283 -0.00105657 0.00357031 0.00108887
47 2 8.69078 13.007 8.14442 0.0208663 0.0340512 -0.0164598
48 2 9.53692 11.6435 8.25489 -0.0146299 -0.020685 -0.0059595
49 1 9.79366 6.52779 9.75257 -0.00390451 0.00296612 -0.000203864
50 2 9.98515 5.91836 10.4848 0.00835842 -0.00537653 -0.0147752
51 2 10.1683 7.37327 10.0485 -0.0138234 0.0196088 0.00623768
52 1 9.3788 11.4062 4.95359 0.00258469 0.00127268 -0.00145779
53 2 8.4769 11.7582 4.80905 0.000684611 0.0218876 -0.0291835
54 2 9.93021 12.22 5.24155 0.0275644 -0.0120402 -0.00515103
55 1 5.90354 9.3437 3.22818 -0.00189402 -0.00567937 -0.00421552
56 2 5.22486 8.89255 2.60486 0.0010367 0.0012127 0.00727849
57 2 6.04213 10.2243 2.83012 -0.0171145 0.011199 0.00883359
58 1 6.66162 11.582 11.3638 0.00393918 -0.00208976 -0.00298584
59 2 4.26986 11.978 7.86665 -0.00166768 0.0767983 -0.0336479
60 2 8.33279 12.3019 11.2593 0.0139882 -0.0156487 0.0206437
61 1 6.70905 6.18737 7.27649 0.00319325 -0.00054718 0.000481357
62 2 6.45869 6.75363 8.087 0.008836 0.0148282 0.00168436
63 2 5.90695 5.96074 6.74769 -0.0169493 0.0273682 0.0178589
64 1 4.72034 10.4301 7.89585 0.00238579 0.00131268 -0.00688497
65 2 4.74011 10.2493 6.87558 0.024731 -0.00731875 0.00800733
66 2 3.52153 12.6553 5.52676 -0.0217997 0.0141809 -0.00683737
67 1 12.1868 9.32814 8.29687 0.00157152 0.001175 -0.00781591
68 2 12.3009 8.34977 7.98119 -0.00885217 0.00476281 0.00476713
69 2 3.8726 9.91734 8.19207 -0.0144652 0.0133126 -0.00949318
70 1 10.3175 4.09691 5.21287 0.00305983 -0.00567196 -0.00179264
71 2 10.2993 4.466 4.33456 0.0026034 -0.0303751 -0.00720045
72 2 9.70972 4.63234 5.73429 -0.022171 0.000386421 -0.00395253
73 1 9.31122 9.72525 7.33792 0.00479459 0.0013125 0.00532875
74 2 10.0581 9.11517 7.39829 0.00687646 0.0166718 -0.0121232
75 2 9.43424 10.1458 6.51344 0.0184928 0.0248874 -0.0139251
76 1 11.803 4.56689 8.41579 -0.00327195 -0.00214407 0.000143602
77 2 11.3327 5.30242 8.84033 -0.0257047 -0.000483189 -0.00286015
78 2 12.7308 4.05615 9.78805 -0.0273654 0.0140806 -0.0151674
79 1 4.56214 6.63254 9.36557 -0.00148329 0.000654558 -0.00118535