ITEM: TIMESTEP
0
ITEM: NUMBER OF ATOMS
96
ITEM: BOX BOUNDS pp pp pp
2.9236100000000000e+00 1.2773600000000000e+01
4.0306300000000004e+00 1.3880599999999999e+01
2.1372399999999998e+00 1.1987200000000000e+01
ITEM: ATOMS id type x y z vx vy vz
1 1 6.92314 6.74202 3.66932 -0.0018816 0.00641192 0.00012225
2 2 6.3192 6.11312 3.89819 -0.010557 -0.00636985 -0.00680185
3 2 9.37965 4.69934 2.80838 -0.0146358 -0.0115454 0.0176958
4 1 3.97723 11.8401 11.9357 0.00396312 -0.00102699 -0.00628041
5 2 4.3621 12.3186 2.8474 0.0129619 0.00222121 0.00818714
6 2 3.01976 11.6729 2.21467 0.0214261 0.0028604 0.0250886
7 1 12.2807 6.63889 3.42618 -0.000919798 -0.00485483 0.00455485
8 2 11.4721 6.38464 2.98217 -0.0132048 -0.002579 0.0143227
9 2 7.87487 9.98755 8.4601 -0.00176226 0.00204556 -0.00562008
10 1 7.30246 9.84885 9.227 -0.0030201 0.00436463 -0.00294536
11 2 6.38343 10.0222 8.96189 0.00236512 -0.00331693 0.00424865
12 2 6.97162 10.7528 10.9772 -0.00247207 -0.0024974 0.0307158
13 1 4.01557 7.98342 11.5715 -0.00069387 0.00233677 0.00114481
14 2 4.16845 7.38616 10.796 -0.0101921 -0.0036361 -0.0180709
15 2 3.54588 7.49978 2.4221 0.00728195 -0.0106775 0.00665201
16 1 11.2009 8.77627 10.9115 -0.00391753 0.000810251 -0.00366043
17 2 11.9595 9.27156 9.2991 -0.000896389 0.0104105 -0.014203
18 2 12.1454 8.50851 11.1699 0.0251527 0.0157573 0.0206503
19 1 3.48406 4.26992 10.5834 0.00422653 -0.000798065 -0.00149824
20 2 3.71712 13.1952 10.9495 0.00643147 0.00392877 0.0113934
21 2 3.98963 5.84084 9.50552 0.0101545 0.0116198 0.00804464
22 1 11.0271 11.2049 2.43056 0.00430703 0.0025567 -0.00180275
23 2 10.5482 11.1665 3.3294 0.00544144 0.0129381 -0.0297227
24 2 10.9763 9.58304 11.4396 -0.0135335 0.0214486 -0.0167341
25 1 12.3006 7.61405 6.36336 0.00207116 0.00111737 -0.000136075
26 2 2.96378 8.31129 5.9035 0.0371443 -0.0157623 0.0132671
27 2 4.45083 4.40096 2.79665 0.00450235 -0.0230207 0.00855444
28 1 9.2266 8.73326 4.10674 0.00163044 0.00160418 -0.00499056
29 2 8.39928 8.2367 4.30699 0.0157194 -0.00529219 -0.0132725
30 2 9.17304 9.45371 4.72354 0.0117298 -0.00747535 -0.0280934
31 1 4.24353 9.74315 5.2918 0.00472877 -0.00112842 0.000313852
32 2 3.72244 10.5661 5.14919 0.00652889 0.0323153 0.0049487
33 2 4.73973 9.62222 4.43555 -0.00999735 -0.00924245 0.00131801
34 1 6.93514 13.3362 7.79372 -0.00965783 0.00572553 -0.000726014
35 2 5.95546 13.1283 7.89793 0.015431 0.0233546 0.00460578
36 2 6.95912 4.49462 7.81274 -0.0020147 0.0119682 -0.029323
37 1 9.16739 12.7437 11.0754 0.0023303 0.000826735 -0.0064956
38 2 9.32718 12.751 10.1115 0.018558 0.00747915 -0.00541301
39 2 10.549 11.9044 11.7715 0.00206533 0.00523171 0.0186816
40 1 12.7391 12.3479 4.84955 0.00524792 -0.00516744 -0.00310593
41 2 4.13963 13.751 4.27759 0.011053 0.00153369 -0.0175778
42 2 11.948 12.9484 4.83129 0.0250759 0.0164929 0.0164288
43 1 4.78253 4.30758 3.69719 -0.00274893 0.00413153 -0.00108972
44 2 11.9562 7.09052 4.30168 -0.00711311 -0.00263352 0.0258435
45 2 6.38981 7.57505 3.66214 -0.00262419 0.00369688 0.00405441
46 1 9.63533 12.6814 8.2211 -0.0011217 -0.00536262 -0.000108304
47 2 8.65836 12.9035 8.18583 -0.00117928 -0.0315098 0.0108193
48 2 9.59735 11.7673 8.25684 0.0264017 0.0373205 -0.00377492
49 1 9.80617 6.51725 9.75274 0.00443162 -0.00423331 0.000120559
50 2 9.94887 5.93654 10.5406 -0.0165995 0.00695476 0.0195568
51 2 10.2215 7.33612 10.0369 0.0218242 -0.00264042 -0.00209704
52 1 9.37344 11.4041 4.95844 -0.0011388 -0.000407977 0.00173499
53 2 8.45229 11.6959 4.8962 -0.0197518 -0.0204946 0.0273111
54 2 9.83011 12.2263 5.2459 -0.0325665 -0.00338888 -4.3217e-05
55 1 5.9066 9.35953 3.23858 0.00020966 0.00474179 0.00267784
56 2 5.25062 8.90464 2.60468 0.0180391 0.00928852 0.00740867
57 2 6.09915 10.1995 2.80358 0.0209349 -0.00334121 -0.00874812
58 1 6.65134 11.5857 11.3725 -0.00273602 0.000525515 0.00295313
59 2 4.27689 11.8436 7.93122 0.00516809 0.000362743 0.00257366
60 2 8.26618 12.3381 11.2063 -0.0228927 0.0120881 -0.0169194
61 1 6.7001 6.18803 7.27562 -0.00222072 -0.000500557 -0.000650109
62 2 6.44186 6.68407 8.04225 -0.00713335 -0.0243384 -0.0173866
63 2 5.95625 5.90742 6.72401 0.01091 -0.00889276 -0.000501288
64 1 4.71319 10.4253 7.91365 -0.00234097 -0.00172835 0.00507453
65 2 4.6757 10.2792 6.88826 -0.0172608 0.0118636 0.0139623
66 2 3.53005 12.6215 5.54748 -0.0165108 -0.00878811 0.00515517
67 1 12.182 9.32074 8.32422 -0.00150908 -0.00315152 0.0101352
68 2 12.3171 8.39578 7.95944 0.00130512 0.029437 -0.00808037
69 2 3.89875 9.88294 8.23088 0.000263303 -0.0101841 0.0173752
70 1 10.3099 4.11257 5.21796 -0.00181778 0.0048303 0.00109538
71 2 10.2835 4.57291 4.35575 -0.00645634 0.0378014 0.00992589
72 2 9.76508 4.6444 5.75017 0.0113684 0.0112586 0.0117255
73 1 9.29678 9.71877 7.32609 -0.00480577 -0.00310483 -0.00243096
74 2 10.0352 9.08209 7.43539 -0.0102399 -0.0027531 0.0104629
75 2 9.39092 10.1094 6.48712 -0.00894779 -0.000641284 -0.0316256
76 1 11.8153 4.57291 8.41492 0.00480612 0.00138811 -0.000722333
77 2 11.3839 5.29921 8.84266 0.00553507 -0.00111783 -0.00015868
78 2 2.95528 4.04504 9.83141 0.0150168 0.00550672 0.00359833
79 1 4.5642 6.62847 9.36814 -1.19527e-05 -0.0020431 0.000506601
80 2 5.46526 6.28647 9.46452 -0.00801017 -0.0219264 0.00884686
81 2 5.72564 11.5921 11.1488 -0.00767294 0.0103608 -0.0126728
82 1 7.25011 7.20848 9.6859 -0.006115 -0.00391227 -0.000627628
83 2 8.20698 6.94937 9.93823 -0.0229118 0.0140121 -0.0297438
84 2 7.21145 8.27543 9.65007 0.00890392 -0.0184983 -0.00679959
85 1 9.72642 5.57183 2.64844 -0.00340525 -0.000578147 -0.00133821
86 2 9.03201 6.16155 2.98113 -0.0150736 -7.83801e-05 0.0159788
87 2 11.126 13.7682 8.09301 0.00139346 -0.00779516 0.0177997
88 1 6.9064 12.7283 5.01117 0.00410458 -0.00379635 -0.000733908
89 2 7.06368 13.2898 5.85672 0.0121649 -0.00381563 0.0121054
90 2 6.63775 13.3988 4.40289 -0.01103 0.0161338 0.0265935
91 1 4.26474 5.68451 5.9246 0.00308358 -0.00290179 -0.0012012
92 2 3.06683 6.81504 6.48103 0.0216317 0.0194779 0.0236102
93 2 4.03597 4.80604 6.27137 0.00233781 -0.00612433 -0.000238081
94 1 4.35004 12.9716 7.49316 -0.000728569 -0.00273836 0.000291774
95 2 3.77903 13.534 8.08289 -0.0104735 -0.0350616 -0.00206201
96 2 4.09885 5.61591 4.92907 -0.00882151 0.00451399 -0.00799128
ITEM: TIMESTEP
1
ITEM: NUMBER OF ATOMS
96
ITEM: BOX BOUNDS pp pp pp
2.9236100000000000e+00 1.2773600000000000e+01
4.0306300000000004e+00 1.3880599999999999e+01
2.1372399999999998e+00 1.1987200000000000e+01
ITEM: ATOMS id type x y z vx vy vz
1 1 6.92229 6.74537 3.66936 -0.00156966 0.00692442 5.37985e-05
2 2 6.31219 6.10794 3.89534 -0.0168901 -0.0136625 -0.00484503
3 2 9.37202 4.69349 2.81684 -0.0154976 -0.011221 0.0159603
4 1 3.97923 11.8396 11.9325 0.00408716 -0.00101757 -0.00652694
5 2 4.36749 12.3195 2.85163 0.00856313 0.00100379 0.00827085
6 2 3.03068 11.6745 2.22822 0.0218066 0.00337607 0.0290032
7 1 12.2802 6.63652 3.42862 -0.0010633 -0.00459886 0.00522201
8 2 11.4651 6.38331 2.98932 -0.0144825 -0.00271913 0.0143379
9 2 7.87422 9.98835 8.45648 -0.000955049 0.00116938 -0.00869474
10 1 7.30092 9.85103 9.22564 -0.0031166 0.00435509 -0.00251437
11 2 6.38467 10.0207 8.96329 0.00239389 -0.00273094 0.00128375
12 2 6.97045 10.7518 10.9924 -0.00218195 -0.00176449 0.0297534
13 1 4.01523 7.98473 11.5721 -0.000688032 0.00284227 0.00118916
14 2 4.16369 7.38365 10.7863 -0.00897844 -0.00596741 -0.0199845
15 2 3.54894 7.49349 2.42615 0.00516027 -0.0142826 0.00917737
16 1 11.199 8.77667 10.9097 -0.0035169 0.000819791 -0.00365849
17 2 11.959 9.27614 9.2913 -0.00145327 0.00768148 -0.0159195
18 2 12.1567 8.51694 11.1802 0.0192669 0.01812 0.0202315
19 1 3.48624 4.26944 10.5827 0.00452378 -0.00110263 -0.00117331
20 2 3.72067 13.198 10.9557 0.00764512 0.00703167 0.0133672
21 2 3.99501 5.84673 9.50964 0.010777 0.01144 0.00846312
22 1 11.0292 11.2062 2.42975 0.0042315 0.00250346 -0.00149359
23 2 10.5516 11.173 3.31314 0.00781871 0.0126214 -0.0341892
24 2 10.9699 9.59356 11.4312 -0.0118672 0.0201079 -0.0171383
25 1 12.3016 7.61459 6.3633 0.00214924 0.00103119 -0.000109045
26 2 2.98251 8.30301 5.91047 0.0374941 -0.0169869 0.0145147
27 2 4.45226 4.38913 2.80129 0.00109759 -0.0241914 0.0093567
28 1 9.22734 8.73399 4.10428 0.00137476 0.00127202 -0.0049246
29 2 8.408 8.23428 4.29962 0.0186745 -0.00453476 -0.015976
30 2 9.17918 9.45057 4.70947 0.0126451 -0.00439334 -0.0275123
31 1 4.24583 9.74262 5.29199 0.00443165 -0.000936643 0.000442043
32 2 3.72566 10.5821 5.15167 0.0068729 0.030751 0.00504077
33 2 4.73534 9.61749 4.43616 -0.0076366 -0.00959451 0.00107659
34 1 6.93033 13.3392 7.79337 -0.00954668 0.00615515 -0.000697633
35 2 5.96242 13.1394 7.89992 0.0117184 0.0205891 0.00350374
36 2 6.95852 4.50028 7.79784 -0.000305437 0.0106319 -0.0301836
37 1 9.16854 12.7441 11.0722 0.00223842 0.000827967 -0.0064971
38 2 9.33641 12.7548 10.1089 0.0182338 0.00751901 -0.00485109
39 2 10.5496 11.9069 11.7808 0.000249294 0.00525115 0.0180041
40 1 12.7417 12.3453 4.848 0.00533168 -0.00506436 -0.00308908
41 2 4.1444 13.7513 4.26803 0.00759151 -0.000608772 -0.0200659
42 2 11.9619 12.9561 4.84039 0.0299294 0.0142553 0.0197589
43 1 4.78126 4.3097 3.69664 -0.00230869 0.00435802 -0.00112484
44 2 11.9535 7.08809 4.3125 -0.00344549 -0.00723271 0.0170592
45 2 6.38925 7.57622 3.66406 0.000299826 0.00102154 0.00362821
46 1 9.63469 12.6788 8.22108 -0.0013988 -0.0048383 3.13695e-05
47 2 8.65838 12.8882 8.19097 0.000855965 -0.02941 0.00972049
48 2 9.61112 11.7835 8.25467 0.0287669 0.0253512 -0.00483595
49 1 9.80842 6.51507 9.75283 0.00456868 -0.00446035 0.000262721
50 2 9.94014 5.94015 10.5502 -0.0183734 0.00758052 0.0185904
51 2 10.2327 7.33558 10.0359 0.0226764 0.00012372 -0.00210385
52 1 9.37289 11.4039 4.95931 -0.00109776 -0.000434043 0.00175096
53 2 8.4414 11.6855 4.90963 -0.0234123 -0.0211123 0.0263947
54 2 9.81442 12.2246 5.24594 -0.0297925 -0.00286449 0.000390484
55 1 5.90666 9.36186 3.23986 4.3393e-05 0.00458757 0.00245909
56 2 5.26023 8.9096 2.60885 0.0199813 0.010283 0.00891565
57 2 6.10977 10.1983 2.79925 0.0215076 -0.00140375 -0.00848781
58 1 6.65003 11.5859 11.374 -0.00253168 0.000394446 0.00300869
59 2 4.27981 11.848 7.93065 0.00648998 0.0168516 -0.00478059
60 2 8.25534 12.3444 11.1977 -0.0198632 0.0135408 -0.0175569
61 1 6.6991 6.18769 7.27522 -0.00174645 -0.000883807 -0.00099469
62 2 6.43777 6.67242 8.0343 -0.00963426 -0.0217705 -0.0134752
63 2 5.96084 5.9036 6.72409 0.00710934 -0.00655501 0.000513949
64 1 4.71202 10.4244 7.91613 -0.00234666 -0.00176289 0.00487506
65 2 4.66746 10.2852 6.89581 -0.0156792 0.0120189 0.0159995
66 2 3.52038 12.6173 5.54992 -0.0216991 -0.00797527 0.00486744
67 1 12.1813 9.31917 8.32933 -0.00144747 -0.00303285 0.0102654
68 2 12.3174 8.41088 7.95534 0.000101538 0.0299138 -0.00844276
69 2 3.89817 9.87801 8.23993 -0.00230902 -0.00935592 0.0186674
70 1 10.3091 4.11497 5.21843 -0.00159794 0.00480393 0.000759562
71 2 10.2803 4.59172 4.3612 -0.00624684 0.0371327 0.0120647
72 2 9.77008 4.65069 5.75683 0.00883482 0.0136749 0.0149004
73 1 9.29438 9.71715 7.32497 -0.00479657 -0.00332046 -0.00211474
74 2 10.0298 9.08154 7.4403 -0.0113173 0.000538867 0.00907175
75 2 9.38693 10.1097 6.46999 -0.00705428 0.00114277 -0.035708
76 1 11.8178 4.57353 8.41451 0.00500238 0.00107629 -0.000924038
77 2 11.3856 5.29875 8.84258 0.0011698 -0.000683761 -0.0001034
78 2 2.96153 4.04839 9.83167 0.00985106 0.00769581 -0.00275467
79 1 4.56415 6.6274 9.36836 -0.000161224 -0.00219904 0.000373783
80 2 5.46146 6.27591 9.46928 -0.00695108 -0.0201246 0.0100687
81 2 5.72098 11.5976 11.1424 -0.0105351 0.0113751 -0.0127727
82 1 7.24705 7.20663 9.68562 -0.0061459 -0.00348685 -0.000514795
83 2 8.19468 6.95681 9.9227 -0.0252553 0.015171 -0.0320416
84 2 7.21646 8.26366 9.64653 0.0107447 -0.0277308 -0.00742385
85 1 9.72473 5.57157 2.64778 -0.0034244 -0.000464524 -0.00126408
86 2 9.02445 6.16109 2.989 -0.0147104 -0.00201179 0.0152627
87 2 11.127 13.7655 8.10266 0.00277744 -0.002855 0.0207413
88 1 6.90852 12.7265 5.01094 0.0043633 -0.00341014 -0.000186518
89 2 7.06929 13.2861 5.86158 0.0102613 -0.0112915 0.00720745
90 2 6.63158 13.4069 4.41547 -0.0136198 0.0161814 0.0236722
91 1 4.26626 5.68306 5.92393 0.0029914 -0.00290756 -0.00147403
92 2 3.07743 6.82561 6.49237 0.0205048 0.0224771 0.021889
93 2 4.03725 4.80301 6.27129 0.00281949 -0.00582949 -0.00017739
94 1 4.34959 12.97 7.49345 -0.00108011 -0.0035074 0.000852359
95 2 3.77458 13.5151 8.08096 -0.00763835 -0.0399976 -0.00536458
96 2 4.09476 5.61809 4.92636 -0.00748751 0.0041666 -0.00255327
ITEM: TIMESTEP
2
ITEM: NUMBER OF ATOMS
96
ITEM: BOX BOUNDS pp pp pp
2.9236100000000000e+00 1.2773600000000000e+01
4.0306300000000004e+00 1.3880599999999999e+01
2.1372399999999998e+00 1.1987200000000000e+01
ITEM: ATOMS id type x y z vx vy vz
1 1 6.92157 6.74894 3.66937 -0.00133352 0.00731828 2.22382e-05
2 2 6.30231 6.09946 3.89334 -0.0217792 -0.0192748 -0.0034984
3 2 9.36415 4.68812 2.82434 -0.0155985 -0.00971331 0.0138713
4 1 3.98132 11.8391 11.9292 0.00427435 -0.000958334 -0.00670348
5 2 4.37066 12.3196 2.85567 0.00418527 -0.000753079 0.00748872
6 2 3.04157 11.6763 2.24367 0.0213225 0.00360375 0.0326607
7 1 12.2796 6.63429 3.4314 -0.00125834 -0.00433342 0.00590731
8 2 11.4576 6.38192 2.99651 -0.0151917 -0.00277893 0.0144205
9 2 7.87391 9.98872 8.45141 -0.000455023 0.000305574 -0.0113402
10 1 7.29934 9.85321 9.22449 -0.00316486 0.00433339 -0.00210185
11 2 6.38582 10.0195 8.96317 0.00202828 -0.00204825 -0.00179442
12 2 6.96944 10.751 11.007 -0.00189208 -0.00158553 0.0283291
13 1 4.01488 7.98626 11.5727 -0.000725585 0.0032528 0.00120904
14 2 4.15947 7.38019 10.776 -0.00799566 -0.00733332 -0.0206123
15 2 3.55104 7.4855 2.43128 0.00353454 -0.0173554 0.0108339
16 1 11.1974 8.77709 10.9078 -0.00302756 0.000865554 -0.00357918
17 2 11.958 9.27924 9.28318 -0.00246721 0.00455616 -0.0154141
18 2 12.1647 8.52663 11.1901 0.0119614 0.0206846 0.0191984
19 1 3.48858 4.26882 10.5822 0.00483522 -0.00136966 -0.00082005
20 2 3.72477 13.2022 10.9629 0.00860583 0.00989715 0.0149837
21 2 4.00041 5.85228 9.51398 0.0102325 0.0102933 0.00892689
22 1 11.0313 11.2074 2.42907 0.00419894 0.00244579 -0.00127267
23 2 10.556 11.1791 3.29521 0.00951286 0.0116639 -0.0362279
24 2 10.9644 9.60315 11.4225 -0.00998808 0.0178374 -0.0180411
25 1 12.3027 7.61508 6.36325 0.002292 0.000938293 -0.00010705
26 2 3.00127 8.2943 5.91801 0.0372484 -0.0174557 0.0155303
27 2 4.45193 4.37677 2.80601 -0.00248758 -0.0251223 0.00888045
28 1 9.22797 8.73453 4.10182 0.00121108 0.000878654 -0.00497109
29 2 8.41795 8.23217 4.29101 0.0205152 -0.00413967 -0.0181818
30 2 9.18569 9.44932 4.69603 0.0131856 -4.42038e-05 -0.025649
31 1 4.24796 9.74221 5.29224 0.00407167 -0.000647433 0.00057048
32 2 3.72931 10.5969 5.15423 0.00823084 0.0274862 0.00520794
33 2 4.73209 9.61263 4.43663 -0.00542369 -0.00979256 0.000793786
34 1 6.92559 13.3424 7.79302 -0.00934137 0.00661331 -0.000687259
35 2 5.96718 13.1489 7.90143 0.00684219 0.0174085 0.00272185
36 2 6.95881 4.50525 7.78256 0.00148818 0.00919358 -0.0308765
37 1 9.16963 12.7445 11.0689 0.00207652 0.00080917 -0.00650262
38 2 9.34541 12.7585 10.1066 0.017674 0.00749058 -0.00399914
39 2 10.5492 11.9097 11.7895 -0.00147909 0.00582483 0.0163007
40 1 12.7444 12.3428 4.84646 0.00540007 -0.00496869 -0.00307871
41 2 4.14722 13.7504 4.25752 0.00334123 -0.00336113 -0.0214105
42 2 11.9779 12.9627 4.85105 0.0337934 0.0120927 0.0225681
43 1 4.78022 4.31194 3.69607 -0.0017974 0.00462 -0.00115172
44 2 11.9528 7.08329 4.31874 0.00058365 -0.0119807 0.00782687
45 2 6.39011 7.57607 3.66577 0.00300641 -0.00148537 0.00322933
46 1 9.63393 12.6766 8.22113 -0.00163289 -0.00412856 0.000168037
47 2 8.65922 12.8741 8.19555 0.00209404 -0.027077 0.00859126
48 2 9.62612 11.7927 8.252 0.031278 0.0101854 -0.00579768
49 1 9.81074 6.51279 9.753 0.00474267 -0.00464756 0.000459149
50 2 9.9305 5.94412 10.5592 -0.0201949 0.00837811 0.0171467
51 2 10.2442 7.33624 10.0348 0.0230725 0.0021069 -0.00246392
52 1 9.37234 11.4037 4.96019 -0.0011667 -0.000502241 0.00176169
53 2 8.42888 11.6748 4.92259 -0.0261334 -0.0220697 0.0254323
54 2 9.80032 12.2234 5.24629 -0.0262979 -0.00139303 0.00111689
55 1 5.90664 9.36412 3.24104 -5.22212e-05 0.00447666 0.00227883
56 2 5.2706 8.91492 2.6136 0.0210039 0.0106666 0.0095969
57 2 6.12066 10.1981 2.79509 0.0219901 0.000423584 -0.00803855
58 1 6.64881 11.5861 11.3755 -0.00237685 0.000313524 0.00307371
59 2 4.28338 11.8605 7.92644 0.00776131 0.032561 -0.011857
60 2 8.24632 12.3516 11.1887 -0.0157888 0.0153827 -0.0184488
61 1 6.69835 6.18715 7.27463 -0.00121023 -0.00130192 -0.00140656
62 2 6.43223 6.6623 8.02877 -0.0127513 -0.0183601 -0.0080467
63 2 5.96336 5.90086 6.72452 0.00276109 -0.0044977 0.000970506
64 1 4.71084 10.4235 7.91853 -0.00237832 -0.00183137 0.00472377
65 2 4.66002 10.2912 6.90426 -0.0140964 0.0119302 0.0176133
66 2 3.50835 12.6135 5.55235 -0.025783 -0.00722744 0.00514466
67 1 12.1806 9.31771 8.33449 -0.00137027 -0.00275598 0.0102877
68 2 12.3172 8.42569 7.951 -0.0009257 0.028316 -0.00912304
69 2 3.89644 9.87358 8.24955 -0.00421266 -0.0080784 0.0196104
70 1 10.3083 4.11737 5.21872 -0.00142138 0.00485084 0.000414545
71 2 10.2773 4.61004 4.36781 -0.00581453 0.0359216 0.014526
72 2 9.77391 4.65807 5.76507 0.00679019 0.0155198 0.0179209
73 1 9.29198 9.71545 7.32398 -0.00479499 -0.00344908 -0.00194692
74 2 10.0239 9.08263 7.44446 -0.0121737 0.00372371 0.00747924
75 2 9.38387 10.1105 6.45141 -0.00529374 0.00175041 -0.0373363
76 1 11.8203 4.57399 8.414 0.00519007 0.00077114 -0.00111653
77 2 11.3851 5.29853 8.84256 -0.00309228 -0.000190858 1.23284e-05
78 2 2.96513 4.05274 9.82866 0.00463699 0.00945516 -0.00920977
79 1 4.56404 6.62627 9.36851 -0.000262372 -0.00230807 0.000232335
80 2 5.45831 6.26635 9.47459 -0.00553231 -0.018024 0.0111424
81 2 5.7151 11.6035 11.136 -0.0124284 0.012178 -0.0127438
82 1 7.24396 7.20499 9.68539 -0.00625212 -0.00309396 -0.000419208
83 2 8.18172 6.96454 9.90619 -0.025417 0.015043 -0.0336579
84 2 7.22219 8.2477 9.64265 0.0117543 -0.034919 -0.00817959
85 1 9.723 5.57137 2.64718 -0.00354557 -0.000396804 -0.00113715
86 2 9.0173 6.15954 2.99639 -0.0134702 -0.00434074 0.0140597
87 2 11.1288 13.7653 8.11375 0.00418253 0.00196044 0.0234894
88 1 6.91076 12.7249 5.01098 0.00461541 -0.00298625 0.000366073
89 2 7.07394 13.2785 5.86393 0.00838354 -0.0189929 0.00226977
90 2 6.62413 13.415 4.42656 -0.0161192 0.0158235 0.0207119
91 1 4.26773 5.6816 5.92313 0.00289232 -0.00292737 -0.0017546
92 2 3.08733 6.83752 6.50292 0.0188847 0.024736 0.0204867
93 2 4.03879 4.80021 6.27119 0.00337066 -0.00521109 -0.000322893
94 1 4.34896 12.9681 7.49401 -0.00141062 -0.00429254 0.00134869
95 2 3.77139 13.494 8.07753 -0.00564669 -0.0435168 -0.00787372
96 2 4.09136 5.62008 4.92652 -0.00610785 0.00374887 0.00322337
ITEM: TIMESTEP
3
ITEM: NUMBER OF ATOMS
96
ITEM: BOX BOUNDS pp pp pp
2.9236100000000000e+00 1.2773600000000000e+01
4.0306300000000004e+00 1.3880599999999999e+01
2.1372399999999998e+00 1.1987200000000000e+01
ITEM: ATOMS id type x y z vx vy vz
1 1 6.92095 6.75268 3.66938 -0.00118919 0.00755048 3.50826e-05
2 2 6.29041 6.08867 3.89184 -0.0248152 -0.0227326 -0.00288855
3 2 9.35642 4.68378 2.83071 -0.0149858 -0.00720508 0.0114447
4 1 3.98351 11.8386 11.9258 0.00450806 -0.000857231 -0.00681197
5 2 4.37168 12.3187 2.85912 3.9466e-05 -0.00291756 0.00599202
6 2 3.052 11.6781 2.26088 0.020037 0.00350938 0.0359594
7 1 12.279 6.63219 3.43453 -0.00148987 -0.00407948 0.00657281
8 2 11.4499 6.38053 3.00375 -0.0153362 -0.0027669 0.0145288
9 2 7.87377 9.98866 8.44514 -0.000363244 -0.000576677 -0.0133353
10 1 7.29776 9.85537 9.22353 -0.00316468 0.00430943 -0.00172886
11 2 6.3867 10.0186 8.9615 0.00133896 -0.0012979 -0.00492146
12 2 6.96856 10.7502 11.0207 -0.00163729 -0.00189743 0.0264662
13 1 4.0145 7.98798 11.5733 -0.000811523 0.00354997 0.00121318
14 2 4.15569 7.37631 10.7657 -0.00724317 -0.007638 -0.0198355
15 2 3.55247 7.47613 2.43698 0.00254775 -0.0196764 0.0113595
16 1 11.196 8.77754 10.9061 -0.00248116 0.000946624 -0.00343771
17 2 11.9565 9.28069 9.27588 -0.00393417 0.00111336 -0.0127323
18 2 12.1687 8.53762 11.1994 0.00382772 0.023201 0.0176684
19 1 3.49108 4.26807 10.5819 0.00513743 -0.00159275 -0.000472645
20 2 3.72927 13.2079 10.9707 0.00923685 0.0124407 0.0161215
21 2 4.00524 5.85702 9.51857 0.00859719 0.00822057 0.00943952
22 1 11.0334 11.2086 2.42847 0.00421421 0.00239296 -0.00116136
23 2 10.5611 11.1846 3.27691 0.0103682 0.0100627 -0.0355871
24 2 10.9599 9.61139 11.4132 -0.00802638 0.0148642 -0.019309
25 1 12.3039 7.61553 6.36319 0.00249572 0.000847459 -0.000127828
26 2 3.01976 8.28556 5.926 0.0363765 -0.0170958 0.0162551
27 2 4.44977 4.36401 2.81017 -0.00610237 -0.0258069 0.00723976
28 1 9.22855 8.73487 4.0993 0.0011502 0.00045043 -0.00511653
29 2 8.42852 8.23014 4.28144 0.021078 -0.004184 -0.0198245
30 2 9.19237 9.45053 4.68382 0.0133448 0.00525554 -0.0227837
31 1 4.2499 9.74197 5.29256 0.00366449 -0.000277194 0.000695914
32 2 3.73389 10.6096 5.15688 0.0104328 0.0227487 0.00540226
33 2 4.72991 9.6077 4.43695 -0.00340409 -0.0098192 0.000544295
34 1 6.92099 13.3458 7.79268 -0.00905565 0.00708397 -0.000691222
35 2 5.96926 13.1568 7.90264 0.00123508 0.014054 0.00223451
36 2 6.96001 4.50948 7.76697 0.00324318 0.0076842 -0.0313988
37 1 9.17062 12.7449 11.0656 0.00186256 0.000780303 -0.00651071
38 2 9.35408 12.7622 10.1049 0.0169248 0.00740468 -0.00299746
39 2 10.5481 11.9128 11.7971 -0.0030265 0.00683448 0.0136787
40 1 12.7471 12.3404 4.84492 0.00545907 -0.00488842 -0.0030792
41 2 4.14774 13.748 4.24662 -0.00143636 -0.00659195 -0.0217141
42 2 11.9956 12.9682 4.86296 0.0363525 0.0101806 0.0247397
43 1 4.77946 4.31432 3.69548 -0.00123973 0.00490888 -0.00117121
44 2 11.9541 7.07611 4.32033 0.00474887 -0.016537 -0.00121417
45 2 6.39225 7.57474 3.66729 0.00533102 -0.00361232 0.00286092
46 1 9.63306 12.6747 8.22125 -0.00182717 -0.00332548 0.000305989
47 2 8.66047 12.8612 8.19956 0.00259727 -0.0247151 0.00743965
48 2 9.6424 11.7936 8.24887 0.0338442 -0.00650574 -0.0067457
49 1 9.81316 6.51042 9.75329 0.00495607 -0.00478391 0.000703235
50 2 9.91994 5.94853 10.5673 -0.0220127 0.00932011 0.0153259
51 2 10.2557 7.33768 10.0334 0.0229456 0.00315084 -0.00317372
52 1 9.37173 11.4034 4.96107 -0.00135037 -0.000602678 0.00177282
53 2 8.41527 11.6635 4.93507 -0.0275928 -0.023308 0.02444
54 2 9.78812 12.2232 5.24706 -0.022344 0.000842138 0.00203632
55 1 5.9066 9.36633 3.24214 -7.02555e-05 0.00441995 0.00214115
56 2 5.28124 8.92027 2.61845 0.0210095 0.0103638 0.00933844
57 2 6.13176 10.1987 2.79121 0.0223445 0.00203574 -0.00736231
58 1 6.64765 11.5862 11.3771 -0.00228194 0.000279719 0.00314295
59 2 4.28757 11.8805 7.9188 0.00896182 0.046691 -0.0183531
60 2 8.23955 12.3598 11.1793 -0.0109931 0.0174478 -0.0195034
61 1 6.69789 6.18639 7.27381 -0.000640297 -0.00173499 -0.00185845
62 2 6.42502 6.65406 8.02625 -0.0161533 -0.0144588 -0.00178486
63 2 5.9636 5.8991 6.72506 -0.00188937 -0.00265846 0.00101219
64 1 4.70964 10.4226 7.92086 -0.0024423 -0.00194578 0.00462533
65 2 4.65337 10.2971 6.91342 -0.0125397 0.0115977 0.0188534
66 2 3.49459 12.6101 5.55507 -0.0285383 -0.00660567 0.00610961
67 1 12.1799 9.31642 8.33962 -0.00127711 -0.00233571 0.0102053
68 2 12.3165 8.4392 7.94622 -0.00177686 0.0248156 -0.0101805
69 2 3.89396 9.86993 8.25954 -0.00526171 -0.00627483 0.020105
70 1 10.3076 4.11982 5.21884 -0.00130159 0.00497802 8.66876e-05
71 2 10.2745 4.62764 4.37572 -0.00518681 0.034246 0.0171526
72 2 9.77687 4.66621 5.77475 0.0054308 0.0165724 0.0205308
73 1 9.28958 9.7137 7.32302 -0.00480903 -0.00348152 -0.00193369
74 2 10.0176 9.08526 7.44778 -0.012644 0.00662133 0.00576822
75 2 9.38164 10.1114 6.43265 -0.00370452 0.00124475 -0.0364799
76 1 11.8229 4.5743 8.41339 0.00537363 0.00049939 -0.00128369
77 2 11.3825 5.29856 8.8426 -0.00708763 0.000289844 0.000131127
78 2 2.96617 4.05785 9.82246 -0.000218325 0.010804 -0.0151679
79 1 4.56389 6.6251 9.36859 -0.000314194 -0.0023722 8.36492e-05
80 2 5.45593 6.25789 9.48043 -0.00395132 -0.0156735 0.0122135
81 2 5.70855 11.6097 11.1297 -0.0131783 0.0127379 -0.012521
82 1 7.2408 7.20354 9.6852 -0.00644011 -0.00276697 -0.000339996
83 2 8.16927 6.97186 9.88904 -0.0232373 0.013481 -0.0345994
84 2 7.22821 8.22874 9.63835 0.0118129 -0.039473 -0.00907912
85 1 9.72118 5.57118 2.64665 -0.00375631 -0.000374803 -0.000962767
86 2 9.01098 6.15675 3.00306 -0.011519 -0.00689553 0.0124402
87 2 11.1312 13.7675 8.12615 0.00537951 0.00629771 0.0258902
88 1 6.91313 12.7235 5.0113 0.00485144 -0.00254624 0.00088198
89 2 7.07767 13.2671 5.86385 0.00661924 -0.0264938 -0.00226052
90 2 6.61546 13.4227 4.43619 -0.0184506 0.0149676 0.0179102
91 1 4.26915 5.68013 5.92218 0.00279518 -0.00295787 -0.00201847
92 2 3.09631 6.85035 6.51286 0.016802 0.02609 0.0194943
93 2 4.04062 4.7978 6.27097 0.00396807 -0.00432767 -0.000641671
94 1 4.34818 12.9657 7.4948 -0.00169655 -0.00506539 0.00174518
95 2 3.76894 13.4716 8.07308 -0.00484653 -0.0452195 -0.00926631
96 2 4.08865 5.62184 4.92959 -0.00475299 0.00324869 0.00888127
ITEM: TIMESTEP
4
ITEM: NUMBER OF ATOMS
96
ITEM: BOX BOUNDS pp pp pp
2.9236100000000000e+00 1.2773600000000000e+01
4.0306300000000004e+00 1.3880599999999999e+01
2.1372399999999998e+00 1.1987200000000000e+01
ITEM: ATOMS id type x y z vx vy vz
1 1 6.92038 6.75649 3.66941 -0.00113885 0.00759555 9.38715e-05
2 2 6.27749 6.07672 3.89046 -0.0258257 -0.0238377 -0.00304185
3 2 9.34917 4.68091 2.83578 -0.0137496 -0.00395501 0.00872474
4 1 3.98583 11.8382 11.9224 0.00476598 -0.000723003 -0.00685419
5 2 4.3707 12.3167 2.86166 -0.00364971 -0.00533448 0.00395728
6 2 3.0616 11.6798 2.27963 0.0180825 0.00307184 0.0387813
7 1 12.2781 6.63021 3.43797 -0.00174065 -0.00385671 0.00718163
8 2 11.4423 6.37915 3.01104 -0.0149558 -0.00269856 0.0146135
9 2 7.87355 9.98814 8.43807 -0.000732426 -0.00150502 -0.0145224
10 1 7.29618 9.85751 9.22276 -0.00312009 0.00429263 -0.00141224
11 2 6.38716 10.0182 8.95825 0.000411666 -0.000509966 -0.00802799
12 2 6.9678 10.7491 11.0334 -0.00145645 -0.00259231 0.0242133
13 1 4.01407 7.98981 11.5739 -0.000945996 0.00372328 0.00121078
14 2 4.15223 7.37255 10.7562 -0.00669291 -0.00686759 -0.0176671
15 2 3.55359 7.46582 2.44264 0.00227269 -0.0210803 0.0106098
16 1 11.1949 8.77804 10.9044 -0.00190957 0.00105821 -0.00325364
17 2 11.9541 9.28035 9.27045 -0.00580776 -0.00258112 -0.00813689
18 2 12.1685 8.54983 11.2078 -0.00452849 0.0254363 0.0157862
19 1 3.49372 4.26722 10.5818 0.00540883 -0.00176654 -0.000163858
20 2 3.734 13.2147 10.979 0.00948447 0.0145888 0.0166921
21 2 4.009 5.8605 9.52342 0.00603302 0.00536207 0.00999074
22 1 11.0355 11.2098 2.42791 0.00427649 0.00235556 -0.00117313
23 2 10.5664 11.1892 3.25962 0.0103 0.00785849 -0.0322211
24 2 10.9564 9.61801 11.4032 -0.00613521 0.0114863 -0.0207806
25 1 12.3052 7.61593 6.36312 0.00275475 0.000768257 -0.000167234
26 2 3.03765 8.27721 5.93427 0.0348658 -0.015898 0.0166528
27 2 4.44583 4.35096 2.81325 -0.00956429 -0.02626 0.00466336
28 1 9.22912 8.73498 4.0967 0.0011952 1.89468e-05 -0.00533787
29 2 8.43903 8.22798 4.27119 0.0203154 -0.00467978 -0.0208753
30 2 9.19903 9.45457 4.67324 0.013123 0.0110474 -0.0193097
31 1 4.25163 9.74194 5.29294 0.00322772 0.000152219 0.00081637
32 2 3.73975 10.6196 5.15963 0.0132514 0.0168753 0.00557794
33 2 4.72869 9.60281 4.43717 -0.00159629 -0.00967357 0.000377053
34 1 6.91654 13.3494 7.79233 -0.00870805 0.00755018 -0.000704631
35 2 5.96841 13.1629 7.90367 -0.00459851 0.0107763 0.00199705
36 2 6.96206 4.51294 7.75116 0.00483534 0.00614086 -0.0317498
37 1 9.17149 12.7453 11.0624 0.00161831 0.000751681 -0.00651841
38 2 9.36234 12.7659 10.1037 0.0160478 0.00727512 -0.00201155
39 2 10.5462 11.9165 11.8032 -0.00429325 0.0081023 0.0103237
40 1 12.7499 12.3379 4.84338 0.00551486 -0.00482702 -0.00309171
41 2 4.14579 13.7438 4.23581 -0.00639301 -0.010103 -0.0211654
42 2 12.0143 12.9728 4.87579 0.0373919 0.00865331 0.026178
43 1 4.77898 4.31685 3.69489 -0.000668834 0.00521095 -0.00118615
44 2 11.9575 7.06675 4.31753 0.00882367 -0.0205765 -0.00943194
45 2 6.39544 7.57246 3.66863 0.00712726 -0.0051455 0.00252208
46 1 9.6321 12.6732 8.22144 -0.00198547 -0.00253987 0.000449377
47 2 8.66181 12.8494 8.20299 0.00257147 -0.0225769 0.00627323
48 2 9.65996 11.7861 8.24526 0.0362436 -0.0227021 -0.00776367
49 1 9.81569 6.50801 9.75371 0.00520732 -0.00486315 0.000983674
50 2 9.90848 5.95344 10.5745 -0.023771 0.0103577 0.0132623
51 2 10.2671 7.33939 10.0316 0.0222711 0.00318884 -0.0041975
52 1 9.37099 11.4031 4.96196 -0.00164399 -0.000723389 0.00179053
53 2 8.40128 11.6515 4.94703 -0.027578 -0.0247291 0.023422
54 2 9.77797 12.2243 5.24833 -0.0182201 0.0035805 0.00302942
55 1 5.90657 9.36854 3.24318 -9.18664e-06 0.00442365 0.00204588
56 2 5.29161 8.92529 2.62293 0.0199867 0.00936057 0.00810457
57 2 6.143 10.2001 2.78773 0.0225318 0.00334346 -0.00643353
58 1 6.64653 11.5864 11.3787 -0.00225093 0.000286618 0.00321154
59 2 4.29234 11.9071 7.90809 0.0101281 0.0583014 -0.0239865
60 2 8.23532 12.3691 11.1692 -0.00585541 0.0195569 -0.0206234
61 1 6.69771 6.18541 7.27277 -7.11983e-05 -0.00216157 -0.00231726
62 2 6.41607 6.64784 8.02699 -0.0195413 -0.0105002 0.00465173
63 2 5.96147 5.89821 6.72554 -0.00656097 -0.000953868 0.00081563
64 1 4.7084 10.4216 7.92315 -0.00254191 -0.00211146 0.00458499
65 2 4.64748 10.3028 6.92311 -0.011035 0.0110367 0.0197395
66 2 3.47981 12.6069 5.55846 -0.0298318 -0.00619526 0.00781702
67 1 12.1793 9.31537 8.34469 -0.00116836 -0.00179828 0.01003
68 2 12.3154 8.45051 7.94082 -0.00248699 0.0197645 -0.0115987
69 2 3.89118 9.86731 8.26965 -0.00535668 -0.00393098 0.0200902
70 1 10.307 4.12235 5.21881 -0.00124683 0.00518561 -0.000199729
71 2 10.2721 4.64429 4.38497 -0.0043958 0.0322163 0.0197587
72 2 9.77935 4.67465 5.7856 0.00487294 0.0166884 0.0225382
73 1 9.28717 9.71197 7.32204 -0.00484659 -0.00341574 -0.00206743
74 2 10.0112 9.08925 7.45023 -0.0125763 0.00906471 0.00402764
75 2 9.38016 10.1118 6.41493 -0.00230785 -0.000223159 -0.0333233
76 1 11.8257 4.57449 8.41271 0.00555611 0.000285869 -0.00141132
77 2 11.378 5.29882 8.84269 -0.010655 0.000697611 0.000198627
78 2 2.96491 4.06354 9.81349 -0.00435438 0.0117762 -0.0200853
79 1 4.56372 6.6239 9.3686 -0.000320276 -0.00239983 -6.88082e-05