ITEM: TIMESTEP
0
ITEM: NUMBER OF ATOMS
96
ITEM: BOX BOUNDS pp pp pp
2.9236100000000000e+00 1.2773600000000000e+01
4.0306300000000004e+00 1.3880599999999999e+01
2.1372399999999998e+00 1.1987200000000000e+01
ITEM: ATOMS id type x y z vx vy vz
1 1 6.92314 6.74202 3.66932 0.0018816 -0.00641192 -0.00012225
2 2 6.3192 6.11312 3.89819 0.010557 0.00636985 0.00680185
3 2 9.37965 4.69934 2.80838 0.0146358 0.0115454 -0.0176958
4 1 3.97723 11.8401 11.9357 -0.00396312 0.00102699 0.00628041
5 2 4.3621 12.3186 2.8474 -0.0129619 -0.00222121 -0.00818714
6 2 3.01976 11.6729 2.21467 -0.0214261 -0.0028604 -0.0250886
7 1 12.2807 6.63889 3.42618 0.000919798 0.00485483 -0.00455485
8 2 11.4721 6.38464 2.98217 0.0132048 0.002579 -0.0143227
9 2 7.87487 9.98755 8.4601 0.00176226 -0.00204556 0.00562008
10 1 7.30246 9.84885 9.227 0.0030201 -0.00436463 0.00294536
11 2 6.38343 10.0222 8.96189 -0.00236512 0.00331693 -0.00424865
12 2 6.97162 10.7528 10.9772 0.00247207 0.0024974 -0.0307158
13 1 4.01557 7.98342 11.5715 0.00069387 -0.00233677 -0.00114481
14 2 4.16845 7.38616 10.796 0.0101921 0.0036361 0.0180709
15 2 3.54588 7.49978 2.4221 -0.00728195 0.0106775 -0.00665201
16 1 11.2009 8.77627 10.9115 0.00391753 -0.000810251 0.00366043
17 2 11.9595 9.27156 9.2991 0.000896389 -0.0104105 0.014203
18 2 12.1454 8.50851 11.1699 -0.0251527 -0.0157573 -0.0206503
19 1 3.48406 4.26992 10.5834 -0.00422653 0.000798065 0.00149824
20 2 3.71712 13.1952 10.9495 -0.00643147 -0.00392877 -0.0113934
21 2 3.98963 5.84084 9.50552 -0.0101545 -0.0116198 -0.00804464
22 1 11.0271 11.2049 2.43056 -0.00430703 -0.0025567 0.00180275
23 2 10.5482 11.1665 3.3294 -0.00544144 -0.0129381 0.0297227
24 2 10.9763 9.58304 11.4396 0.0135335 -0.0214486 0.0167341
25 1 12.3006 7.61405 6.36336 -0.00207116 -0.00111737 0.000136075
26 2 2.96378 8.31129 5.9035 -0.0371443 0.0157623 -0.0132671
27 2 4.45083 4.40096 2.79665 -0.00450235 0.0230207 -0.00855444
28 1 9.2266 8.73326 4.10674 -0.00163044 -0.00160418 0.00499056
29 2 8.39928 8.2367 4.30699 -0.0157194 0.00529219 0.0132725
30 2 9.17304 9.45371 4.72354 -0.0117298 0.00747535 0.0280934
31 1 4.24353 9.74315 5.2918 -0.00472877 0.00112842 -0.000313852
32 2 3.72244 10.5661 5.14919 -0.00652889 -0.0323153 -0.0049487
33 2 4.73973 9.62222 4.43555 0.00999735 0.00924245 -0.00131801
34 1 6.93514 13.3362 7.79372 0.00965783 -0.00572553 0.000726014
35 2 5.95546 13.1283 7.89793 -0.015431 -0.0233546 -0.00460578
36 2 6.95912 4.49462 7.81274 0.0020147 -0.0119682 0.029323
37 1 9.16739 12.7437 11.0754 -0.0023303 -0.000826735 0.0064956
38 2 9.32718 12.751 10.1115 -0.018558 -0.00747915 0.00541301
39 2 10.549 11.9044 11.7715 -0.00206533 -0.00523171 -0.0186816
40 1 12.7391 12.3479 4.84955 -0.00524792 0.00516744 0.00310593
41 2 4.13963 13.751 4.27759 -0.011053 -0.00153369 0.0175778
42 2 11.948 12.9484 4.83129 -0.0250759 -0.0164929 -0.0164288
43 1 4.78253 4.30758 3.69719 0.00274893 -0.00413153 0.00108972
44 2 11.9562 7.09052 4.30168 0.00711311 0.00263352 -0.0258435
45 2 6.38981 7.57505 3.66214 0.00262419 -0.00369688 -0.00405441
46 1 9.63533 12.6814 8.2211 0.0011217 0.00536262 0.000108304
47 2 8.65836 12.9035 8.18583 0.00117928 0.0315098 -0.0108193
48 2 9.59735 11.7673 8.25684 -0.0264017 -0.0373205 0.00377492
49 1 9.80617 6.51725 9.75274 -0.00443162 0.00423331 -0.000120559
50 2 9.94887 5.93654 10.5406 0.0165995 -0.00695476 -0.0195568
51 2 10.2215 7.33612 10.0369 -0.0218242 0.00264042 0.00209704
52 1 9.37344 11.4041 4.95844 0.0011388 0.000407977 -0.00173499
53 2 8.45229 11.6959 4.8962 0.0197518 0.0204946 -0.0273111
54 2 9.83011 12.2263 5.2459 0.0325665 0.00338888 4.3217e-05
55 1 5.9066 9.35953 3.23858 -0.00020966 -0.00474179 -0.00267784
56 2 5.25062 8.90464 2.60468 -0.0180391 -0.00928852 -0.00740867
57 2 6.09915 10.1995 2.80358 -0.0209349 0.00334121 0.00874812
58 1 6.65134 11.5857 11.3725 0.00273602 -0.000525515 -0.00295313
59 2 4.27689 11.8436 7.93122 -0.00516809 -0.000362743 -0.00257366
60 2 8.26618 12.3381 11.2063 0.0228927 -0.0120881 0.0169194
61 1 6.7001 6.18803 7.27562 0.00222072 0.000500557 0.000650109
62 2 6.44186 6.68407 8.04225 0.00713335 0.0243384 0.0173866
63 2 5.95625 5.90742 6.72401 -0.01091 0.00889276 0.000501288
64 1 4.71319 10.4253 7.91365 0.00234097 0.00172835 -0.00507453
65 2 4.6757 10.2792 6.88826 0.0172608 -0.0118636 -0.0139623
66 2 3.53005 12.6215 5.54748 0.0165108 0.00878811 -0.00515517
67 1 12.182 9.32074 8.32422 0.00150908 0.00315152 -0.0101352
68 2 12.3171 8.39578 7.95944 -0.00130512 -0.029437 0.00808037
69 2 3.89875 9.88294 8.23088 -0.000263303 0.0101841 -0.0173752
70 1 10.3099 4.11257 5.21796 0.00181778 -0.0048303 -0.00109538
71 2 10.2835 4.57291 4.35575 0.00645634 -0.0378014 -0.00992589
72 2 9.76508 4.6444 5.75017 -0.0113684 -0.0112586 -0.0117255
73 1 9.29678 9.71877 7.32609 0.00480577 0.00310483 0.00243096
74 2 10.0352 9.08209 7.43539 0.0102399 0.0027531 -0.0104629
75 2 9.39092 10.1094 6.48712 0.00894779 0.000641284 0.0316256
76 1 11.8153 4.57291 8.41492 -0.00480612 -0.00138811 0.000722333
77 2 11.3839 5.29921 8.84266 -0.00553507 0.00111783 0.00015868
78 2 2.95528 4.04504 9.83141 -0.0150168 -0.00550672 -0.00359833
79 1 4.5642 6.62847 9.36814 1.19527e-05 0.0020431 -0.000506601
80 2 5.46526 6.28647 9.46452 0.00801017 0.0219264 -0.00884686
81 2 5.72564 11.5921 11.1488 0.00767294 -0.0103608 0.0126728
82 1 7.25011 7.20848 9.6859 0.006115 0.00391227 0.000627628
83 2 8.20698 6.94937 9.93823 0.0229118 -0.0140121 0.0297438
84 2 7.21145 8.27543 9.65007 -0.00890392 0.0184983 0.00679959
85 1 9.72642 5.57183 2.64844 0.00340525 0.000578147 0.00133821
86 2 9.03201 6.16155 2.98113 0.0150736 7.83801e-05 -0.0159788
87 2 11.126 13.7682 8.09301 -0.00139346 0.00779516 -0.0177997
88 1 6.9064 12.7283 5.01117 -0.00410458 0.00379635 0.000733908
89 2 7.06368 13.2898 5.85672 -0.0121649 0.00381563 -0.0121054
90 2 6.63775 13.3988 4.40289 0.01103 -0.0161338 -0.0265935
91 1 4.26474 5.68451 5.9246 -0.00308358 0.00290179 0.0012012
92 2 3.06683 6.81504 6.48103 -0.0216317 -0.0194779 -0.0236102
93 2 4.03597 4.80604 6.27137 -0.00233781 0.00612433 0.000238081
94 1 4.35004 12.9716 7.49316 0.000728569 0.00273836 -0.000291774
95 2 3.77903 13.534 8.08289 0.0104735 0.0350616 0.00206201
96 2 4.09885 5.61591 4.92907 0.00882151 -0.00451399 0.00799128
ITEM: TIMESTEP
1
ITEM: NUMBER OF ATOMS
96
ITEM: BOX BOUNDS pp pp pp
2.9236100000000000e+00 1.2773600000000000e+01
4.0306300000000004e+00 1.3880599999999999e+01
2.1372399999999998e+00 1.1987200000000000e+01
ITEM: ATOMS id type x y z vx vy vz
1 1 6.92417 6.73895 3.66924 0.00224068 -0.0058381 -0.000214261
2 2 6.32275 6.11431 3.90215 0.00339708 -0.0018809 0.00914368
3 2 9.38666 4.70504 2.79914 0.0130178 0.010608 -0.0190943
4 1 3.97527 11.8406 11.9388 -0.0039118 0.0009817 0.00596315
5 2 4.35453 12.3173 2.84344 -0.0172005 -0.00280288 -0.00712794
6 2 3.00925 11.6716 2.20313 -0.0201853 -0.00210211 -0.0210015
7 1 12.2811 6.64138 3.42406 0.000840102 0.0050792 -0.0039447
8 2 11.4783 6.38588 2.975 0.0113976 0.00236031 -0.0144003
9 2 7.87598 9.9863 8.4621 0.00274074 -0.00296399 0.00238246
10 1 7.30394 9.84667 9.22858 0.00287938 -0.00435286 0.00337119
11 2 6.38231 10.024 8.95904 -0.00189204 0.00377924 -0.00704044
12 2 6.97293 10.7543 10.9617 0.00273418 0.00379506 -0.0312231
13 1 4.01592 7.98239 11.5709 0.000734121 -0.00176142 -0.00106917
14 2 4.17388 7.38728 10.8044 0.0116064 0.00051372 0.015113
15 2 3.54166 7.50417 2.41949 -0.00969682 0.0067942 -0.00361052
16 1 11.2029 8.77586 10.9133 0.00420034 -0.000833252 0.00357561
17 2 11.9599 9.26573 9.3055 0.000763742 -0.0126603 0.0104244
18 2 12.1316 8.50118 11.1596 -0.0290894 -0.0138458 -0.0203741
19 1 3.48202 4.27024 10.5842 -0.00396606 0.000464023 0.00176308
20 2 3.71423 13.194 10.9443 -0.00505524 -0.00068687 -0.00920145
21 2 3.98486 5.83511 9.5016 -0.00839406 -0.0108919 -0.00765691
22 1 11.0249 11.2036 2.43155 -0.00441624 -0.00259875 0.00217429
23 2 10.5461 11.16 3.34286 -0.00258287 -0.012658 0.0232431
24 2 10.9834 9.57211 11.4479 0.0148908 -0.0217279 0.0169158
25 1 12.2996 7.61347 6.36344 -0.00206009 -0.00118913 0.00018841
26 2 2.94537 8.31878 5.8972 -0.0362406 0.0139046 -0.0118627
27 2 4.44776 4.41215 2.79274 -0.00761528 0.021622 -0.00648502
28 1 9.22571 8.73238 4.10927 -0.00196059 -0.00185655 0.0051715
29 2 8.39228 8.23957 4.31289 -0.0119084 0.00628542 0.0101671
30 2 9.16745 9.45805 4.73756 -0.0104593 0.00913776 0.0272549
31 1 4.2411 9.74375 5.29167 -0.0049508 0.0012135 -0.000190359
32 2 3.71913 10.5498 5.14673 -0.00729111 -0.0320838 -0.00497769
33 2 4.74533 9.62674 4.43484 0.0124334 0.00876917 -0.00142222
34 1 6.93998 13.3334 7.79409 0.00966658 -0.00533858 0.000774535
35 2 5.94699 13.116 7.89531 -0.017643 -0.0254914 -0.00602835
36 2 6.96054 4.48832 7.82717 0.00352853 -0.0131754 0.0283006
37 1 9.16621 12.7433 11.0786 -0.00233941 -0.000796773 0.00649771
38 2 9.31785 12.7473 10.1143 -0.0186213 -0.00736469 0.00558707
39 2 10.5475 11.9017 11.7621 -0.00389412 -0.00581114 -0.0183169
40 1 12.7365 12.3505 4.85111 -0.00514307 0.00526581 0.00312231
41 2 4.13335 13.7498 4.28561 -0.0135622 -0.00300374 0.0139436
42 2 11.9368 12.9396 4.82397 -0.0196127 -0.0186036 -0.0126983
43 1 4.784 4.30557 3.69773 0.00310289 -0.00394442 0.00104677
44 2 11.9606 7.09073 4.28666 0.0101975 -0.00146741 -0.0335439
45 2 6.39187 7.57252 3.66 0.00559451 -0.00635407 -0.0044992
46 1 9.63582 12.6842 8.22119 0.000802463 0.00564341 0.000254216
47 2 8.65956 12.9197 8.18015 0.00391242 0.0332495 -0.0118823
48 2 9.58472 11.7461 8.25844 -0.0241681 -0.0450429 0.00255265
49 1 9.80398 6.51931 9.75271 -0.00432537 0.00398151 -3.42095e-05
50 2 9.95674 5.9332 10.5306 0.0149153 -0.00650349 -0.0199866
51 2 10.2109 7.33822 10.038 -0.0206189 0.00594561 0.00241386
52 1 9.37403 11.4043 4.95758 0.00127631 0.000430979 -0.00170973
53 2 8.46116 11.706 4.88232 0.0155526 0.0202287 -0.0281497
54 2 9.84698 12.228 5.24599 0.0344101 0.00287725 0.000112821
55 1 5.90645 9.35712 3.23718 -0.000435231 -0.00492479 -0.00292735
56 2 5.24219 8.90031 2.60145 -0.0153453 -0.00780643 -0.00525155
57 2 6.08883 10.2017 2.808 -0.0203065 0.00527444 0.00886537
58 1 6.65276 11.5854 11.371 0.00297382 -0.000706011 -0.00291196
59 2 4.27464 11.8476 7.92808 -0.00390009 0.0163412 -0.00987595
60 2 8.27824 12.3324 11.2146 0.0246381 -0.0111632 0.0166139
61 1 6.70132 6.18819 7.27587 0.00261216 0.000168054 0.000392893
62 2 6.4449 6.69676 8.05169 0.00543926 0.0257889 0.0193684
63 2 5.94993 5.91249 6.72459 -0.0139775 0.0115344 0.00215436
64 1 4.71436 10.4262 7.91106 0.00235337 0.00171037 -0.00531752
65 2 4.68472 10.2733 6.88184 0.0188109 -0.0114786 -0.0114436
66 2 3.53689 12.6261 5.54477 0.0104962 0.00963693 -0.00583878
67 1 12.1828 9.32233 8.3192 0.00155573 0.00310987 -0.0099016
68 2 12.3161 8.38144 7.96342 -0.00265133 -0.0269065 0.00792054
69 2 3.89791 9.88819 8.22255 -0.00325536 0.0106864 -0.0158587
70 1 10.3109 4.11014 5.21733 0.00206361 -0.0049174 -0.00139601
71 2 10.2868 4.55391 4.35127 0.00642245 -0.0378853 -0.00822748
72 2 9.75872 4.63943 5.7451 -0.0141338 -0.00854379 -0.00868807
73 1 9.29919 9.72026 7.3274 0.00481565 0.00281894 0.00287346
74 2 10.04 9.08429 7.42984 0.00910521 0.00597577 -0.0115833
75 2 9.39588 10.1103 6.50161 0.010916 0.00354764 0.0253736
76 1 11.8129 4.57214 8.41523 -0.00459646 -0.00168001 0.00052827
77 2 11.38 5.29987 8.84274 -0.00984362 0.00142112 9.94279e-05
78 2 2.94651 4.04289 9.82807 -0.0197293 -0.00289205 -0.00926815
79 1 4.56416 6.62945 9.36785 -0.00018072 0.00184449 -0.000631009
80 2 5.46947 6.29784 9.46044 0.00862724 0.0234055 -0.0074444
81 2 5.72865 11.5872 11.1551 0.00410641 -0.00917277 0.0125226
82 1 7.25317 7.21054 9.68624 0.00614516 0.00433537 0.000756298
83 2 8.21759 6.9428 9.95244 0.0187345 -0.0118015 0.0268255
84 2 7.20755 8.28216 9.65333 -0.00640665 0.00795054 0.00629485
85 1 9.72813 5.57215 2.64912 0.00349397 0.000733731 0.00135833
86 2 9.03952 6.16116 2.97303 0.0144514 -0.00132739 -0.0161724
87 2 11.1256 13.7733 8.08486 -0.000258462 0.0125096 -0.0148314
88 1 6.90441 12.7303 5.01167 -0.00384853 0.00412504 0.00123307
89 2 7.05712 13.2899 5.84948 -0.014007 -0.00301141 -0.0165184
90 2 6.64261 13.3908 4.38888 0.0084302 -0.0158018 -0.0292587
91 1 4.26318 5.68596 5.92513 -0.0031612 0.00291164 0.000959313
92 2 3.0558 6.80613 6.46876 -0.02225 -0.0159458 -0.0255464
93 2 4.03491 4.80913 6.27153 -0.00194088 0.00607112 0.000521562
94 1 4.35032 12.9728 7.49316 0.000382849 0.00200671 0.000293334
95 2 3.78506 13.5501 8.08302 0.0137955 0.029044 -0.00165424
96 2 4.10358 5.61357 4.93435 0.0100469 -0.00480369 0.012669
ITEM: TIMESTEP
2
ITEM: NUMBER OF ATOMS
96
ITEM: BOX BOUNDS pp pp pp
2.9236100000000000e+00 1.2773600000000000e+01
4.0306300000000004e+00 1.3880599999999999e+01
2.1372399999999998e+00 1.1987200000000000e+01
ITEM: ATOMS id type x y z vx vy vz
1 1 6.92538 6.73618 3.66911 0.00261009 -0.0052683 -0.000312246
2 2 6.3226 6.11124 3.90733 -0.003845 -0.0102125 0.0115725
3 2 9.39267 4.70995 2.78929 0.0107053 0.00845858 -0.0202045
4 1 3.97332 11.8411 11.9417 -0.0039354 0.000880412 0.00557695
5 2 4.3449 12.3158 2.84027 -0.0211421 -0.00269975 -0.00504346
6 2 2.99957 11.6708 2.19367 -0.0181475 -0.00115394 -0.0168124
7 1 12.2815 6.64397 3.42224 0.000833108 0.00524904 -0.00343052
8 2 11.4835 6.387 2.96777 0.00914385 0.00207666 -0.014575
9 2 7.87761 9.98459 8.46248 0.00373889 -0.00395048 -0.000732072
10 1 7.30534 9.8445 9.23037 0.00270141 -0.00431223 0.00376768
11 2 6.38154 10.026 8.95485 -0.000952488 0.00409427 -0.00960433
12 2 6.97435 10.7566 10.946 0.0029484 0.00561386 -0.0313136
13 1 4.0163 7.98166 11.5704 0.000797117 -0.0011464 -0.000958643
14 2 4.18006 7.38667 10.8111 0.0131603 -0.00315779 0.0114515
15 2 3.53618 7.50657 2.41849 -0.0121613 0.00289787 -0.000455814
16 1 11.2051 8.77544 10.9151 0.0043418 -0.000880602 0.00340172
17 2 11.9603 9.2589 9.30952 0.000992578 -0.014356 0.00492082
18 2 12.1163 8.49466 11.1495 -0.0306664 -0.0126039 -0.019367
19 1 3.48009 4.27038 10.5852 -0.00376162 0.000110894 0.00194197
20 2 3.71206 13.1945 10.9403 -0.00361022 0.00258063 -0.00693186
21 2 3.98124 5.82995 9.49786 -0.00562281 -0.00940162 -0.00727749
22 1 11.0227 11.2023 2.43273 -0.00454651 -0.00262615 0.00258054
23 2 10.5456 11.1538 3.35264 0.000528101 -0.0118592 0.015284
24 2 10.9912 9.56131 11.4565 0.0158852 -0.0209254 0.017711
25 1 12.2985 7.61286 6.36355 -0.00211727 -0.00124013 0.000264489
26 2 2.92754 8.32519 5.89164 -0.0348287 0.0115703 -0.0103861
27 2 4.44321 4.42258 2.79016 -0.0103645 0.020017 -0.00326805
28 1 9.22464 8.7314 4.11191 -0.00234237 -0.00201921 0.00545907
29 2 8.38737 8.24299 4.31716 -0.00756808 0.00735668 0.00677922
30 2 9.16258 9.46285 4.75079 -0.00887074 0.00938691 0.0250074
31 1 4.23858 9.74436 5.29161 -0.00509053 0.0011913 -7.71197e-05
32 2 3.71515 10.534 5.14421 -0.00915418 -0.0301117 -0.00516565
33 2 4.75216 9.63099 4.43413 0.0148477 0.00822004 -0.00128058
34 1 6.94481 13.3309 7.79449 0.00956998 -0.00500578 0.000843648
35 2 5.93782 13.1028 7.8919 -0.0181109 -0.026827 -0.00774162
36 2 6.96265 4.48144 7.84104 0.00475573 -0.014227 0.0271258
37 1 9.16505 12.7429 11.0819 -0.00225946 -0.000731629 0.00650118
38 2 9.30856 12.7436 10.1171 -0.0184202 -0.00717493 0.00533113
39 2 10.5451 11.8986 11.7532 -0.00568793 -0.00695707 -0.0169839
40 1 12.734 12.3532 4.85267 -0.00501154 0.00534438 0.00312953
41 2 4.12607 13.748 4.29153 -0.0150063 -0.00371824 0.0091605
42 2 11.9284 12.9298 4.81859 -0.0139509 -0.0203754 -0.00868111
43 1 4.78563 4.30364 3.69824 0.00336432 -0.00379673 0.00099719
44 2 11.9664 7.08905 4.26814 0.0124861 -0.00472066 -0.0395451
45 2 6.3954 7.5687 3.65764 0.00844314 -0.00883851 -0.00494894
46 1 9.63613 12.687 8.22135 0.000447364 0.00566023 0.000407928
47 2 8.66227 12.9367 8.17395 0.00715823 0.0345361 -0.0129037
48 2 9.57318 11.7223 8.25939 -0.0220321 -0.0481061 0.00114186
49 1 9.80184 6.52123 9.75271 -0.00424098 0.00372277 -3.34505e-07
50 2 9.96379 5.93004 10.5206 0.0133497 -0.00620382 -0.0198628
51 2 10.2009 7.34207 10.0393 -0.0191886 0.00949017 0.00299507
52 1 9.37472 11.4045 4.95673 0.00148967 0.000506506 -0.00167335
53 2 8.46784 11.7161 4.86805 0.0112536 0.02028 -0.0288629
54 2 9.86452 12.2292 5.24601 0.0351827 0.00133933 -0.000219682
55 1 5.90616 9.35461 3.23565 -0.00070551 -0.00511978 -0.00319704
56 2 5.23527 8.89683 2.59943 -0.0121198 -0.00599202 -0.00266203
57 2 6.07884 10.2048 2.81245 -0.0196516 0.00708768 0.00888803
58 1 6.65431 11.585 11.3696 0.00322488 -0.000931466 -0.00288902
59 2 4.27299 11.8599 7.92134 -0.00279239 0.0326336 -0.0167878
60 2 8.29082 12.3269 11.2229 0.024969 -0.0108627 0.0166933
61 1 6.70271 6.1882 7.27601 0.00290892 -0.000103162 0.000233251
62 2 6.4473 6.70986 8.06162 0.00457706 0.025945 0.0193372
63 2 5.94227 5.91895 6.72616 -0.0161997 0.0144581 0.00444698
64 1 4.71554 10.427 7.90833 0.0023748 0.00169029 -0.0055984
65 2 4.69451 10.2677 6.87682 0.0202944 -0.0108895 -0.00839895
66 2 3.54055 12.6311 5.54164 0.00391218 0.0104406 -0.00663002
67 1 12.1836 9.32385 8.31432 0.00158793 0.0029183 -0.0095769
68 2 12.3144 8.36887 7.96736 -0.00407826 -0.0225261 0.00781593
69 2 3.89549 9.89363 8.21502 -0.00637639 0.0110133 -0.0142562
70 1 10.312 4.10765 5.21656 0.00231632 -0.00504891 -0.00163853
71 2 10.2899 4.53502 4.34752 0.00613388 -0.0373775 -0.00704197
72 2 9.75095 4.63586 5.74148 -0.0168434 -0.00582312 -0.00607992
73 1 9.3016 9.72159 7.32896 0.00482124 0.00248674 0.00340419
74 2 10.0443 9.08807 7.42381 0.00806343 0.00897102 -0.0123831
75 2 9.40184 10.1129 6.51249 0.0128793 0.00738964 0.0174956
76 1 11.8107 4.57123 8.41545 -0.00436897 -0.00192754 0.000358062
77 2 11.3741 5.30063 8.84276 -0.0139437 0.00153098 -0.000118534
78 2 2.93555 4.04215 9.82214 -0.0236328 0.000112359 -0.0137603
79 1 4.56402 6.63031 9.36751 -0.000409549 0.00161288 -0.000748307
80 2 5.47389 6.30988 9.45708 0.00885139 0.0245716 -0.0059538
81 2 5.72975 11.5829 11.1613 0.000165879 -0.00785104 0.0124038
82 1 7.25626 7.21282 9.68666 0.00621712 0.00472172 0.00089775
83 2 8.22571 6.93757 9.96506 0.0131933 -0.00881652 0.0234038
84 2 7.20504 8.28338 9.65636 -0.00345023 -0.00311096 0.00590084
85 1 9.72991 5.57256 2.6498 0.00368843 0.000922816 0.00132773
86 2 9.04646 6.16022 2.96496 0.0128087 -0.00212916 -0.0158477
87 2 11.1257 13.7807 8.07818 0.000423004 0.0166736 -0.0120061
88 1 6.90255 12.7324 5.0124 -0.00360363 0.00437843 0.00164171
89 2 7.04967 13.2868 5.8402 -0.0157057 -0.00878806 -0.0200143
90 2 6.64618 13.383 4.37363 0.00589525 -0.0153181 -0.0314496
91 1 4.26158 5.68742 5.92556 -0.00321831 0.0029369 0.00076934
92 2 3.04458 6.79909 6.45548 -0.0223538 -0.0121145 -0.0275936
93 2 4.03403 4.81211 6.27189 -0.00163483 0.00568409 0.00102497
94 1 4.35042 12.9736 7.49345 6.96897e-05 0.00133045 0.000860173
95 2 3.79283 13.563 8.08124 0.0172039 0.0224057 -0.00536256
96 2 4.1089 5.61111 4.94174 0.0111116 -0.00504918 0.016224
ITEM: TIMESTEP
3
ITEM: NUMBER OF ATOMS
96
ITEM: BOX BOUNDS pp pp pp
2.9236100000000000e+00 1.2773600000000000e+01
4.0306300000000004e+00 1.3880599999999999e+01
2.1372399999999998e+00 1.1987200000000000e+01
ITEM: ATOMS id type x y z vx vy vz
1 1 6.92678 6.73369 3.66893 0.00295167 -0.00476751 -0.000397087
2 2 6.3189 6.1041 3.91372 -0.0104116 -0.017734 0.0137639
3 2 9.39736 4.7135 2.77894 0.00781736 0.00528983 -0.0211021
4 1 3.97134 11.8415 11.9443 -0.00402896 0.000725862 0.00512776
5 2 4.33339 12.3146 2.8384 -0.024701 -0.00191961 -0.00196049
6 2 2.9911 11.6705 2.18632 -0.0154248 -7.28031e-05 -0.0125876
7 1 12.282 6.64663 3.42063 0.000903699 0.00534163 -0.00304945
8 2 11.4875 6.38796 2.96043 0.0065664 0.00175325 -0.0148282
9 2 7.87972 9.98235 8.46137 0.00461131 -0.00502474 -0.00344575
10 1 7.30664 9.84236 9.23235 0.00249503 -0.00423736 0.00411225
11 2 6.38136 10.0281 8.94944 0.000442934 0.00424412 -0.0118911
12 2 6.97587 10.7599 10.9303 0.00310324 0.00786003 -0.0310564
13 1 4.01672 7.98124 11.57 0.000870122 -0.000524553 -0.000813873
14 2 4.18704 7.38413 10.8159 0.0147658 -0.00708737 0.00749122
15 2 3.5295 7.50706 2.41904 -0.0144166 -0.000758052 0.0024051
16 1 11.2073 8.77498 10.9167 0.00432767 -0.000940283 0.00314413
17 2 11.9609 9.25137 9.31042 0.00149575 -0.0154402 -0.0018275
18 2 12.1009 8.48858 11.1402 -0.0296557 -0.012191 -0.0176449
19 1 3.47826 4.27035 10.5862 -0.00362713 -0.000248277 0.00201747
20 2 3.71062 13.1966 10.9374 -0.00218471 0.00574685 -0.00471365
21 2 3.97923 5.8257 9.49432 -0.0020296 -0.00735653 -0.00687989
22 1 11.0204 11.201 2.43413 -0.00468285 -0.00263904 0.00299363
23 2 10.5467 11.1482 3.35815 0.00364912 -0.0106429 0.0064549
24 2 10.9993 9.55118 11.4656 0.0165114 -0.0191379 0.0190769
25 1 12.2975 7.61223 6.3637 -0.00224299 -0.00126529 0.000361568
26 2 12.7605 8.33035 5.88682 -0.032955 0.00893364 -0.00892503
27 2 4.43739 4.43217 2.78947 -0.012712 0.0182436 0.000879611
28 1 9.22337 8.73036 4.11473 -0.00274915 -0.00209038 0.00583557
29 2 8.38472 8.24693 4.31967 -0.00306712 0.00833369 0.00324363
30 2 9.15858 9.46743 4.76257 -0.00702087 0.00836366 0.0214944
31 1 4.23601 9.74494 5.2916 -0.00514711 0.00107078 1.93877e-05
32 2 3.70997 10.5197 5.14156 -0.0120002 -0.0266124 -0.00553599
33 2 4.76018 9.63496 4.43356 0.0171238 0.00764903 -0.00078238
34 1 6.94955 13.3284 7.79494 0.00936991 -0.00473566 0.00093211
35 2 5.92888 13.0892 7.88757 -0.0166728 -0.02724 -0.00968334
36 2 6.96529 4.47409 7.85429 0.00563091 -0.0150929 0.0258132
37 1 9.16395 12.7426 11.0851 -0.0020915 -0.000628208 0.00650211
38 2 9.29943 12.7401 10.1196 -0.017972 -0.00691395 0.00466614
39 2 10.5418 11.8948 11.7451 -0.00742958 -0.00856996 -0.0148325
40 1 12.7315 12.3559 4.85424 -0.00484843 0.0053861 0.0031179
41 2 4.11834 13.7461 4.29477 -0.0153986 -0.00371369 0.00339285
42 2 11.9228 12.9192 4.81528 -0.0085142 -0.0216007 -0.00448296
43 1 4.78737 4.30177 3.69872 0.00353551 -0.0036853 0.000941933
44 2 11.9731 7.08601 4.24711 0.0137879 -0.00679418 -0.0432853
45 2 6.40031 7.56369 3.65505 0.0110129 -0.0110176 -0.0053884
46 1 9.63626 12.6898 8.2216 6.76352e-05 0.00542423 0.000569439
47 2 8.66671 12.9543 8.16725 0.0107064 0.0352855 -0.0138763
48 2 9.56269 11.698 8.25959 -0.0199902 -0.0466177 -0.000451919
49 1 9.79974 6.52303 9.75271 -0.0041677 0.00347581 -1.14421e-05
50 2 9.97008 5.92699 10.5108 0.0119172 -0.00600945 -0.0192096
51 2 10.1917 7.34771 10.041 -0.0176714 0.0129397 0.00375942
52 1 9.37552 11.4048 4.9559 0.00175369 0.00063431 -0.00162647
53 2 8.47241 11.7263 4.85346 0.00728635 0.0205747 -0.0293895
54 2 9.88216 12.2293 5.24577 0.0348231 -0.00112391 -0.000957463
55 1 5.90574 9.352 3.23398 -0.00100387 -0.00530908 -0.00347431
56 2 5.23007 8.89432 2.59878 -0.0086133 -0.00401668 0.000120209
57 2 6.06918 10.2087 2.81689 -0.0189926 0.00867193 0.00886205
58 1 6.65599 11.5845 11.3681 0.00346703 -0.00119402 -0.00288635
59 2 4.27185 11.8802 7.91129 -0.00189952 0.0476095 -0.0229732
60 2 8.3032 12.3215 11.2313 0.0238804 -0.0112254 0.0171768
61 1 6.70423 6.18809 7.2761 0.00310769 -0.000307876 0.000172357
62 2 6.44948 6.7227 8.07102 0.00456412 0.0247834 0.0173009
63 2 5.93373 5.92695 6.72904 -0.0175386 0.017605 0.00731441
64 1 4.71674 10.4278 7.90546 0.0023956 0.00165197 -0.00590931
65 2 4.70502 10.2624 6.87345 0.0216713 -0.0101312 -0.00482239
66 2 3.5408 12.6365 5.53814 -0.00293887 0.0112061 -0.00729537
67 1 12.1844 9.32524 8.30962 0.00160584 0.00259817 -0.00917943
68 2 12.312 8.35892 7.97124 -0.00550385 -0.016657 0.00760454
69 2 3.89153 9.8992 8.2083 -0.00931921 0.0113208 -0.0127073
70 1 10.3132 4.10509 5.21569 0.00255709 -0.00520684 -0.00180554
71 2 10.2929 4.51654 4.34423 0.00559041 -0.0363051 -0.00639356
72 2 9.74187 4.63361 5.73902 -0.0192142 -0.00337327 -0.00415584
73 1 9.30401 9.72275 7.33081 0.00482024 0.00213806 0.0039722
74 2 10.0481 9.09326 7.41746 0.00724123 0.0116104 -0.0128348
75 2 9.40876 10.1177 6.51911 0.0147372 0.0118559 0.00875155
76 1 11.8086 4.57021 8.41559 -0.00412063 -0.00211011 0.000225882
77 2 11.3661 5.3014 8.84262 -0.0176954 0.00140306 -0.000523768
78 2 12.7729 4.043 9.81431 -0.0264577 0.00343397 -0.0167165
79 1 4.56375 6.63106 9.36711 -0.000665007 0.00136173 -0.000860366
80 2 5.47832 6.32241 9.45448 0.00868965 0.0254114 -0.0043721
81 2 5.72882 11.5793 11.1675 -0.00378506 -0.00643704 0.0123915
82 1 7.25939 7.21527 9.68714 0.00630844 0.00503824 0.00104737
83 2 8.23079 6.93399 9.97585 0.0068238 -0.00534532 0.0196368
84 2 7.2041 8.27905 9.65923 -0.000232017 -0.0138639 0.00561064
85 1 9.73182 5.57308 2.65045 0.00397777 0.00113262 0.00125403
86 2 9.05233 6.15904 2.95718 0.0101961 -0.00232344 -0.0150512
87 2 11.1261 13.79 8.07285 0.000490316 0.0200088 -0.00948432
88 1 6.90081 12.7347 5.01331 -0.00337688 0.00454138 0.00192093
89 2 7.04142 13.2811 5.82946 -0.0171908 -0.013159 -0.0221963
90 2 6.64851 13.3755 4.35743 0.00348751 -0.0148102 -0.0329674
91 1 4.25996 5.6889 5.9259 -0.00325113 0.00297558 0.000648703
92 2 3.03344 6.79402 6.44117 -0.0219426 -0.00822695 -0.029659
93 2 4.03328 4.81482 6.27256 -0.00141628 0.0050166 0.00172482
94 1 4.35039 12.9741 7.49402 -0.00018734 0.00072896 0.00136402
95 2 3.80226 13.5726 8.07766 0.0202444 0.0158389 -0.00862074
96 2 4.1147 5.60852 4.95058 0.0119781 -0.00526438 0.0183777
ITEM: TIMESTEP
4
ITEM: NUMBER OF ATOMS
96
ITEM: BOX BOUNDS pp pp pp
2.9236100000000000e+00 1.2773600000000000e+01
4.0306300000000004e+00 1.3880599999999999e+01
2.1372399999999998e+00 1.1987200000000000e+01
ITEM: ATOMS id type x y z vx vy vz
1 1 6.92833 6.73141 3.66871 0.00323307 -0.00439196 -0.000451317
2 2 6.31219 6.09351 3.9211 -0.0156517 -0.0236878 0.0154225
3 2 9.40049 4.71524 2.76818 0.00452322 0.00143142 -0.0218807
4 1 3.96929 11.8418 11.9468 -0.00418124 0.000525169 0.00462701
5 2 4.3202 12.3139 2.83831 -0.0278441 -0.000532356 0.00200609
6 2 2.98415 11.6707 2.18108 -0.0121671 0.0010801 -0.00839683
7 1 12.2824 6.64931 3.41919 0.00105193 0.00533638 -0.00283333
8 2 11.4901 6.38875 2.95294 0.00381849 0.00142385 -0.01512
9 2 7.88222 9.97956 8.45904 0.00523996 -0.00619927 -0.00551691
10 1 7.30783 9.84026 9.23448 0.00226975 -0.00412526 0.00438593
11 2 6.38198 10.0302 8.94296 0.00224992 0.00421875 -0.0138571
12 2 6.97746 10.7645 10.9149 0.00319473 0.0103991 -0.0305459
13 1 4.01717 7.98113 11.5696 0.000940861 7.15437e-05 -0.000639842
14 2 4.19482 7.37959 10.8186 0.0163173 -0.0109601 0.00365694
15 2 3.52177 7.50582 2.42089 -0.016218 -0.00395336 0.00460844
16 1 11.2094 8.7745 10.9182 0.00415644 -0.000997875 0.0028164
17 2 11.9618 9.24346 9.3077 0.00216794 -0.0158813 -0.00923891
18 2 12.0867 8.48247 11.1319 -0.0260659 -0.0126843 -0.0152844
19 1 3.47647 4.27014 10.5872 -0.00357007 -0.000598025 0.00198176
20 2 3.70988 13.2003 10.9356 -0.000854842 0.00867583 -0.00265508
21 2 3.97921 5.82259 9.49098 0.00214777 -0.00500684 -0.00643619
22 1 11.018 11.1997 2.43573 -0.00480864 -0.00264083 0.00338628
23 2 10.5493 11.1432 3.3591 0.00653402 -0.00912323 -0.00259587
24 2 11.0077 9.54217 11.4756 0.0168116 -0.0165704 0.0208989
25 1 12.2963 7.6116 6.36391 -0.00243655 -0.00126104 0.00047593
26 2 12.7446 8.33413 5.88271 -0.0306651 0.00617123 -0.00756311
27 2 4.4305 4.44083 2.79104 -0.0146471 0.0163585 0.00566488
28 1 9.22189 8.72931 4.11775 -0.00315219 -0.00207515 0.00627623
29 2 8.3843 8.25132 4.3204 0.00120829 0.0090438 -0.000298181
30 2 9.15556 9.47121 4.77229 -0.004984 0.00631039 0.0169657
31 1 4.23343 9.74543 5.29163 -0.00512681 0.00087022 9.21128e-05
32 2 3.70315 10.5074 5.13868 -0.0155946 -0.0219477 -0.00609246
33 2 4.76929 9.63864 4.43335 0.0191327 0.00711387 0.000173327
34 1 6.95418 13.3261 7.79543 0.00907272 -0.00453372 0.00103702
35 2 5.92114 13.0756 7.88222 -0.0132479 -0.026673 -0.0117619
36 2 6.96828 4.46635 7.86685 0.00611972 -0.0157325 0.0243824
37 1 9.16296 12.7423 11.0884 -0.00184427 -0.000487406 0.0064957
38 2 9.29059 12.7367 10.1218 -0.0173147 -0.00659066 0.00367592
39 2 10.5377 11.89 11.7384 -0.00913032 -0.0105011 -0.0120662
40 1 12.7291 12.3586 4.85579 -0.00465006 0.00537352 0.0030774
41 2 4.11067 13.7443 4.29493 -0.0148796 -0.0031575 -0.00301648
42 2 11.9199 12.9082 4.81411 -0.00371469 -0.0220933 -0.000200889
43 1 4.78917 4.29995 3.69918 0.00362589 -0.00360467 0.000881437
44 2 11.9802 7.08226 4.22485 0.0139521 -0.00740091 -0.0443045
45 2 6.40642 7.55768 3.65225 0.0131641 -0.0127656 -0.00580522
46 1 9.6362 12.6925 8.22192 -0.00032162 0.00496751 0.000737712
47 2 8.67298 12.972 8.16007 0.0143338 0.0354427 -0.0147935
48 2 9.55319 11.6756 8.25894 -0.0180615 -0.0410515 -0.00219793
49 1 9.79768 6.52471 9.75269 -0.00409417 0.00325829 -5.70473e-05
50 2 9.9757 5.92403 10.5014 0.0106176 -0.00585608 -0.0180862
51 2 10.1832 7.35501 10.0431 -0.0162007 0.015962 0.00461429
52 1 9.37647 11.4052 4.9551 0.00204126 0.00081029 -0.00157193
53 2 8.47513 11.7367 4.83866 0.00402975 0.0210135 -0.029661
54 2 9.89934 12.2281 5.24506 0.0333529 -0.00433545 -0.00206994
55 1 5.90516 9.3493 3.23218 -0.0013128 -0.00547547 -0.0037455
56 2 5.22666 8.89282 2.59955 -0.00508715 -0.00205349 0.00285233
57 2 6.05985 10.2134 2.82131 -0.018345 0.00993262 0.00882645
58 1 6.65778 11.5838 11.3667 0.00367859 -0.00148308 -0.00290373
59 2 4.27109 11.9076 7.89837 -0.00133687 0.0604696 -0.0280652
60 2 8.3147 12.3157 11.2401 0.0215001 -0.0122225 0.0180441
61 1 6.70582 6.18789 7.27619 0.00321306 -0.000446179 0.000203247
62 2 6.45186 6.73464 8.07892 0.00534972 0.0223999 0.0134401
63 2 5.92473 5.93656 6.73348 -0.0180311 0.0208839 0.0106294
64 1 4.71794 10.4287 7.90242 0.00240745 0.00158186 -0.00623877
65 2 4.71618 10.2576 6.87199 0.0228975 -0.00924691 -0.000776518
66 2 3.53761 12.6423 5.53435 -0.00970785 0.0120437 -0.00769011
67 1 12.1852 9.32645 8.30514 0.00160929 0.00217947 -0.00873235
68 2 12.3089 8.35222 7.97497 -0.0068361 -0.00977839 0.00712457
69 2 3.88618 9.90495 8.20231 -0.0117941 0.0117469 -0.0113375
70 1 10.3145 4.10245 5.21476 0.00276932 -0.00537352 -0.00188694
71 2 10.2955 4.49872 4.34113 0.0048036 -0.0347243 -0.00625751
72 2 9.73173 4.63248 5.73733 -0.0210016 -0.00142436 -0.00310412
73 1 9.30642 9.72373 7.33294 0.00481315 0.00180558 0.00451931
74 2 10.0515 9.09968 7.41097 0.00673437 0.0138028 -0.0129325
75 2 9.41657 10.1248 6.52125 0.0163736 0.016545 2.80283e-05
76 1 11.8066 4.56912 8.41567 -0.00385147 -0.00221211 0.000142645
77 2 11.3564 5.30203 8.84224 -0.0209734 0.00101677 -0.00112591
78 2 12.7591 4.04558 9.80543 -0.0280401 0.00696381 -0.0179388
79 1 4.56335 6.63168 9.36665 -0.000936461 0.00110698 -0.000969225