ITEM: TIMESTEP
0
ITEM: NUMBER OF ATOMS
96
ITEM: BOX BOUNDS pp pp pp
2.9236100000000000e+00 1.2773600000000000e+01
4.0306300000000004e+00 1.3880599999999999e+01
2.1372399999999998e+00 1.1987200000000000e+01
ITEM: ATOMS id type x y z vx vy vz
1 1 6.92229 6.74537 3.66936 -0.00156966 0.00692442 5.37985e-05
2 2 6.31219 6.10794 3.89534 -0.0168901 -0.0136625 -0.00484503
3 2 9.37202 4.69349 2.81684 -0.0154976 -0.011221 0.0159603
4 1 3.97923 11.8396 11.9325 0.00408716 -0.00101757 -0.00652694
5 2 4.36749 12.3195 2.85163 0.00856313 0.00100379 0.00827085
6 2 3.03068 11.6745 2.22822 0.0218066 0.00337607 0.0290032
7 1 12.2802 6.63652 3.42862 -0.0010633 -0.00459886 0.00522201
8 2 11.4651 6.38331 2.98932 -0.0144825 -0.00271913 0.0143379
9 2 7.87422 9.98835 8.45648 -0.000955049 0.00116938 -0.00869474
10 1 7.30092 9.85103 9.22564 -0.0031166 0.00435509 -0.00251437
11 2 6.38467 10.0207 8.96329 0.00239389 -0.00273094 0.00128375
12 2 6.97045 10.7518 10.9924 -0.00218195 -0.00176449 0.0297534
13 1 4.01523 7.98473 11.5721 -0.000688032 0.00284227 0.00118916
14 2 4.16369 7.38365 10.7863 -0.00897844 -0.00596741 -0.0199845
15 2 3.54894 7.49349 2.42615 0.00516027 -0.0142826 0.00917737
16 1 11.199 8.77667 10.9097 -0.0035169 0.000819791 -0.00365849
17 2 11.959 9.27614 9.2913 -0.00145327 0.00768148 -0.0159195
18 2 12.1567 8.51694 11.1802 0.0192669 0.01812 0.0202315
19 1 3.48624 4.26944 10.5827 0.00452378 -0.00110263 -0.00117331
20 2 3.72067 13.198 10.9557 0.00764512 0.00703167 0.0133672
21 2 3.99501 5.84673 9.50964 0.010777 0.01144 0.00846312
22 1 11.0292 11.2062 2.42975 0.0042315 0.00250346 -0.00149359
23 2 10.5516 11.173 3.31314 0.00781871 0.0126214 -0.0341892
24 2 10.9699 9.59356 11.4312 -0.0118672 0.0201079 -0.0171383
25 1 12.3016 7.61459 6.3633 0.00214924 0.00103119 -0.000109045
26 2 2.98251 8.30301 5.91047 0.0374941 -0.0169869 0.0145147
27 2 4.45226 4.38913 2.80129 0.00109759 -0.0241914 0.0093567
28 1 9.22734 8.73399 4.10428 0.00137476 0.00127202 -0.0049246
29 2 8.408 8.23428 4.29962 0.0186745 -0.00453476 -0.015976
30 2 9.17918 9.45057 4.70947 0.0126451 -0.00439334 -0.0275123
31 1 4.24583 9.74262 5.29199 0.00443165 -0.000936643 0.000442043
32 2 3.72566 10.5821 5.15167 0.0068729 0.030751 0.00504077
33 2 4.73534 9.61749 4.43616 -0.0076366 -0.00959451 0.00107659
34 1 6.93033 13.3392 7.79337 -0.00954668 0.00615515 -0.000697633
35 2 5.96242 13.1394 7.89992 0.0117184 0.0205891 0.00350374
36 2 6.95852 4.50028 7.79784 -0.000305437 0.0106319 -0.0301836
37 1 9.16854 12.7441 11.0722 0.00223842 0.000827967 -0.0064971
38 2 9.33641 12.7548 10.1089 0.0182338 0.00751901 -0.00485109
39 2 10.5496 11.9069 11.7808 0.000249294 0.00525115 0.0180041
40 1 12.7417 12.3453 4.848 0.00533168 -0.00506436 -0.00308908
41 2 4.1444 13.7513 4.26803 0.00759151 -0.000608772 -0.0200659
42 2 11.9619 12.9561 4.84039 0.0299294 0.0142553 0.0197589
43 1 4.78126 4.3097 3.69664 -0.00230869 0.00435802 -0.00112484
44 2 11.9535 7.08809 4.3125 -0.00344549 -0.00723271 0.0170592
45 2 6.38925 7.57622 3.66406 0.000299826 0.00102154 0.00362821
46 1 9.63469 12.6788 8.22108 -0.0013988 -0.0048383 3.13695e-05
47 2 8.65838 12.8882 8.19097 0.000855965 -0.02941 0.00972049
48 2 9.61112 11.7835 8.25467 0.0287669 0.0253512 -0.00483595
49 1 9.80842 6.51507 9.75283 0.00456868 -0.00446035 0.000262721
50 2 9.94014 5.94015 10.5502 -0.0183734 0.00758052 0.0185904
51 2 10.2327 7.33558 10.0359 0.0226764 0.00012372 -0.00210385
52 1 9.37289 11.4039 4.95931 -0.00109776 -0.000434043 0.00175096
53 2 8.4414 11.6855 4.90963 -0.0234123 -0.0211123 0.0263947
54 2 9.81442 12.2246 5.24594 -0.0297925 -0.00286449 0.000390484
55 1 5.90666 9.36186 3.23986 4.3393e-05 0.00458757 0.00245909
56 2 5.26023 8.9096 2.60885 0.0199813 0.010283 0.00891565
57 2 6.10977 10.1983 2.79925 0.0215076 -0.00140375 -0.00848781
58 1 6.65003 11.5859 11.374 -0.00253168 0.000394446 0.00300869
59 2 4.27981 11.848 7.93065 0.00648998 0.0168516 -0.00478059
60 2 8.25534 12.3444 11.1977 -0.0198632 0.0135408 -0.0175569
61 1 6.6991 6.18769 7.27522 -0.00174645 -0.000883807 -0.00099469
62 2 6.43777 6.67242 8.0343 -0.00963426 -0.0217705 -0.0134752
63 2 5.96084 5.9036 6.72409 0.00710934 -0.00655501 0.000513949
64 1 4.71202 10.4244 7.91613 -0.00234666 -0.00176289 0.00487506
65 2 4.66746 10.2852 6.89581 -0.0156792 0.0120189 0.0159995
66 2 3.52038 12.6173 5.54992 -0.0216991 -0.00797527 0.00486744
67 1 12.1813 9.31917 8.32933 -0.00144747 -0.00303285 0.0102654
68 2 12.3174 8.41088 7.95534 0.000101538 0.0299138 -0.00844276
69 2 3.89817 9.87801 8.23993 -0.00230902 -0.00935592 0.0186674
70 1 10.3091 4.11497 5.21843 -0.00159794 0.00480393 0.000759562
71 2 10.2803 4.59172 4.3612 -0.00624684 0.0371327 0.0120647
72 2 9.77008 4.65069 5.75683 0.00883482 0.0136749 0.0149004
73 1 9.29438 9.71715 7.32497 -0.00479657 -0.00332046 -0.00211474
74 2 10.0298 9.08154 7.4403 -0.0113173 0.000538867 0.00907175
75 2 9.38693 10.1097 6.46999 -0.00705428 0.00114277 -0.035708
76 1 11.8178 4.57353 8.41451 0.00500238 0.00107629 -0.000924038
77 2 11.3856 5.29875 8.84258 0.0011698 -0.000683761 -0.0001034
78 2 2.96153 4.04839 9.83167 0.00985106 0.00769581 -0.00275467
79 1 4.56415 6.6274 9.36836 -0.000161224 -0.00219904 0.000373783
80 2 5.46146 6.27591 9.46928 -0.00695108 -0.0201246 0.0100687
81 2 5.72098 11.5976 11.1424 -0.0105351 0.0113751 -0.0127727
82 1 7.24705 7.20663 9.68562 -0.0061459 -0.00348685 -0.000514795
83 2 8.19468 6.95681 9.9227 -0.0252553 0.015171 -0.0320416
84 2 7.21646 8.26366 9.64653 0.0107447 -0.0277308 -0.00742385
85 1 9.72473 5.57157 2.64778 -0.0034244 -0.000464524 -0.00126408
86 2 9.02445 6.16109 2.989 -0.0147104 -0.00201179 0.0152627
87 2 11.127 13.7655 8.10266 0.00277744 -0.002855 0.0207413
88 1 6.90852 12.7265 5.01094 0.0043633 -0.00341014 -0.000186518
89 2 7.06929 13.2861 5.86158 0.0102613 -0.0112915 0.00720745
90 2 6.63158 13.4069 4.41547 -0.0136198 0.0161814 0.0236722
91 1 4.26626 5.68306 5.92393 0.0029914 -0.00290756 -0.00147403
92 2 3.07743 6.82561 6.49237 0.0205048 0.0224771 0.021889
93 2 4.03725 4.80301 6.27129 0.00281949 -0.00582949 -0.00017739
94 1 4.34959 12.97 7.49345 -0.00108011 -0.0035074 0.000852359
95 2 3.77458 13.5151 8.08096 -0.00763835 -0.0399976 -0.00536458
96 2 4.09476 5.61809 4.92636 -0.00748751 0.0041666 -0.00255327
ITEM: TIMESTEP
1
ITEM: NUMBER OF ATOMS
96
ITEM: BOX BOUNDS pp pp pp
2.9236100000000000e+00 1.2773600000000000e+01
4.0306300000000004e+00 1.3880599999999999e+01
2.1372399999999998e+00 1.1987200000000000e+01
ITEM: ATOMS id type x y z vx vy vz
1 1 6.92158 6.74895 3.66937 -0.00133355 0.00731819 2.22588e-05
2 2 6.30231 6.09946 3.89334 -0.0217784 -0.0192742 -0.00349867
3 2 9.36415 4.68812 2.82434 -0.0155986 -0.00971346 0.0138713
4 1 3.98131 11.8391 11.9292 0.00427441 -0.000958394 -0.00670356
5 2 4.37066 12.3196 2.85567 0.00418521 -0.000752875 0.0074894
6 2 3.04157 11.6763 2.24367 0.0213224 0.00360411 0.0326611
7 1 12.2796 6.63429 3.4314 -0.00125826 -0.00433343 0.00590729
8 2 11.4576 6.38193 2.9965 -0.0151924 -0.00277901 0.0144204
9 2 7.87391 9.98872 8.4514 -0.000455196 0.000305325 -0.0113394
10 1 7.29934 9.8532 9.22449 -0.00316491 0.00433344 -0.00210195
11 2 6.38582 10.0195 8.96317 0.00202921 -0.00204876 -0.00179387
12 2 6.96943 10.751 11.007 -0.00189236 -0.00158857 0.0283274
13 1 4.01488 7.98627 11.5727 -0.000725517 0.00325264 0.00120878
14 2 4.15948 7.3802 10.776 -0.00799658 -0.00733051 -0.0206076
15 2 3.55104 7.4855 2.43128 0.00353473 -0.0173558 0.0108331
16 1 11.1974 8.77709 10.9079 -0.00302756 0.000865414 -0.00357936
17 2 11.9581 9.27924 9.28318 -0.00246683 0.00455631 -0.0154161
18 2 12.1646 8.52663 11.1901 0.0119616 0.0206851 0.0191995
19 1 3.48858 4.26882 10.5822 0.00483535 -0.00136935 -0.00081987
20 2 3.72477 13.2023 10.9628 0.00860692 0.00989339 0.0149856
21 2 4.00041 5.85228 9.51398 0.0102317 0.0102922 0.008927
22 1 11.0313 11.2074 2.42907 0.00419964 0.0024451 -0.00127249
23 2 10.556 11.1792 3.29521 0.00950989 0.0116648 -0.0362246
24 2 10.9644 9.60315 11.4225 -0.00998811 0.0178387 -0.0180394
25 1 12.3027 7.61508 6.36325 0.00229252 0.000938148 -0.000107155
26 2 3.00127 8.2943 5.91801 0.0372451 -0.0174568 0.0155317
27 2 4.45193 4.37677 2.80601 -0.00248704 -0.0251223 0.00888181
28 1 9.22797 8.73453 4.10182 0.00121105 0.000878632 -0.0049711
29 2 8.41795 8.23216 4.29101 0.0205158 -0.00413922 -0.0181817
30 2 9.18569 9.44932 4.69603 0.0131855 -4.43487e-05 -0.025649
31 1 4.24796 9.74221 5.29224 0.00407165 -0.000647375 0.000570418
32 2 3.72932 10.5969 5.15423 0.00823125 0.0274851 0.00520824
33 2 4.7321 9.61262 4.43663 -0.00542392 -0.00979257 0.000794239
34 1 6.9256 13.3424 7.79303 -0.00934147 0.00661296 -0.000687256
35 2 5.96718 13.1489 7.90144 0.00684177 0.017407 0.00272185
36 2 6.95881 4.50525 7.78255 0.00148983 0.00919968 -0.0308764
37 1 9.16963 12.7445 11.069 0.00207635 0.000809182 -0.00650319
38 2 9.34541 12.7586 10.1067 0.0176737 0.00749057 -0.0039925
39 2 10.5493 11.9096 11.7895 -0.00148547 0.00583442 0.0162955
40 1 12.7444 12.3428 4.84646 0.0054006 -0.00496872 -0.0030784
41 2 4.14722 13.7504 4.25752 0.00334259 -0.00336022 -0.0214117
42 2 11.978 12.9627 4.85104 0.0337879 0.0120954 0.0225672
43 1 4.78023 4.31194 3.69607 -0.00179753 0.00461995 -0.00115172
44 2 11.9528 7.08328 4.31874 0.000583083 -0.0119805 0.00782744
45 2 6.39011 7.57607 3.66577 0.00300611 -0.00148476 0.00322929
46 1 9.63393 12.6765 8.22113 -0.00163272 -0.00412772 0.000168026
47 2 8.65922 12.8741 8.19555 0.00209118 -0.0270752 0.00859116
48 2 9.62611 11.7927 8.252 0.0312793 0.0101708 -0.00579699
49 1 9.81074 6.51279 9.753 0.00474273 -0.00464742 0.00045919
50 2 9.9305 5.94412 10.5592 -0.020195 0.00837795 0.0171469
51 2 10.2442 7.33625 10.0348 0.0230713 0.00210488 -0.00246463
52 1 9.37234 11.4037 4.96019 -0.00116658 -0.000502481 0.00176167
53 2 8.42887 11.6747 4.92259 -0.026134 -0.0220673 0.0254328
54 2 9.80032 12.2234 5.24629 -0.0262991 -0.00139106 0.00111704
55 1 5.90665 9.36412 3.24104 -5.23171e-05 0.00447645 0.00227887
56 2 5.2706 8.91492 2.61359 0.0210041 0.0106664 0.00959747
57 2 6.12066 10.1981 2.79509 0.0219911 0.000426732 -0.00803969
58 1 6.64881 11.5861 11.3755 -0.002377 0.000313787 0.0030738
59 2 4.28338 11.8605 7.92644 0.00776065 0.0325577 -0.0118552
60 2 8.24631 12.3516 11.1887 -0.0157875 0.0153837 -0.0184475
61 1 6.69835 6.18715 7.27463 -0.00121024 -0.00130185 -0.00140657
62 2 6.43223 6.6623 8.02878 -0.0127512 -0.01836 -0.00804678
63 2 5.96336 5.90087 6.72452 0.00276106 -0.00449771 0.000970466
64 1 4.71084 10.4235 7.91852 -0.00237809 -0.00183125 0.00472374
65 2 4.66002 10.2912 6.90426 -0.0140967 0.0119295 0.0176134
66 2 3.50835 12.6135 5.55234 -0.0257855 -0.00722969 0.00514056
67 1 12.1806 9.3177 8.33448 -0.0013705 -0.00275592 0.0102879
68 2 12.3172 8.42569 7.95099 -0.000925043 0.0283142 -0.00912392
69 2 3.89644 9.87359 8.24955 -0.00421294 -0.00808031 0.0196108
70 1 10.3084 4.11737 5.21872 -0.00142165 0.00485113 0.000414666
71 2 10.2773 4.61005 4.36782 -0.00581374 0.0359204 0.0145267
72 2 9.77391 4.65808 5.76507 0.00679333 0.0155161 0.0179183
73 1 9.29198 9.71545 7.32397 -0.004795 -0.00344905 -0.001947
74 2 10.0239 9.08263 7.44446 -0.012174 0.00372405 0.00747872
75 2 9.38386 10.1106 6.45141 -0.00529353 0.00174944 -0.0373347
76 1 11.8203 4.57399 8.414 0.00518938 0.000770776 -0.00111672
77 2 11.3851 5.29853 8.84255 -0.00309079 -0.000192131 1.15544e-05
78 2 2.96513 4.05273 9.82865 0.00463406 0.00945411 -0.00921387
79 1 4.56404 6.62627 9.36851 -0.000262334 -0.00230797 0.000232344
80 2 5.45831 6.26634 9.47459 -0.00553242 -0.018024 0.0111425
81 2 5.7151 11.6035 11.136 -0.0124263 0.0121769 -0.0127436
82 1 7.24396 7.20499 9.68539 -0.00625209 -0.00309395 -0.000419205
83 2 8.18172 6.96454 9.90619 -0.025417 0.0150429 -0.0336579
84 2 7.2222 8.2477 9.64265 0.011754 -0.034919 -0.00817966
85 1 9.723 5.57136 2.64717 -0.0035456 -0.000396774 -0.00113714
86 2 9.0173 6.15954 2.99639 -0.0134698 -0.00434114 0.0140596
87 2 11.1288 13.7653 8.11375 0.00419097 0.0019673 0.0234924
88 1 6.91077 12.7249 5.01099 0.00461547 -0.00298637 0.000366185
89 2 7.07394 13.2785 5.86393 0.00838341 -0.0189929 0.00226926
90 2 6.62413 13.415 4.42656 -0.01612 0.0158255 0.0207106
91 1 4.26773 5.6816 5.92312 0.00289229 -0.00292731 -0.00175457
92 2 3.08734 6.83752 6.50292 0.0188804 0.0247386 0.0204864
93 2 4.03879 4.80021 6.27119 0.00337054 -0.00521096 -0.000323087
94 1 4.34896 12.9681 7.49401 -0.00141074 -0.00429205 0.00134876
95 2 3.77139 13.494 8.07753 -0.00564444 -0.0435198 -0.0078763
96 2 4.09136 5.62008 4.92651 -0.0061078 0.00374866 0.00322343
ITEM: TIMESTEP
2
ITEM: NUMBER OF ATOMS
96
ITEM: BOX BOUNDS pp pp pp
2.9236100000000000e+00 1.2773600000000000e+01
4.0306300000000004e+00 1.3880599999999999e+01
2.1372399999999998e+00 1.1987200000000000e+01
ITEM: ATOMS id type x y z vx vy vz
1 1 6.92096 6.75269 3.66938 -0.00118924 0.00755032 3.51199e-05
2 2 6.29041 6.08867 3.89184 -0.0248138 -0.0227314 -0.00288903
3 2 9.35642 4.68378 2.83071 -0.0149858 -0.00720536 0.0114446
4 1 3.9835 11.8386 11.9258 0.00450819 -0.000857337 -0.00681213
5 2 4.37168 12.3187 2.85912 3.93114e-05 -0.00291721 0.00599333
6 2 3.052 11.6781 2.26088 0.0200367 0.00351005 0.0359603
7 1 12.2789 6.63219 3.43453 -0.00148971 -0.00407949 0.00657277
8 2 11.4499 6.38053 3.00374 -0.0153373 -0.00276703 0.0145287
9 2 7.87376 9.98866 8.44514 -0.000363565 -0.000577141 -0.0133336
10 1 7.29776 9.85536 9.22354 -0.00316478 0.00430951 -0.00172906
11 2 6.3867 10.0187 8.9615 0.00134073 -0.00129886 -0.00492038
12 2 6.96856 10.7502 11.0207 -0.00163788 -0.00190325 0.0264629
13 1 4.0145 7.98798 11.5733 -0.00081139 0.00354966 0.00121267
14 2 4.15569 7.37632 10.7657 -0.00724486 -0.00763267 -0.0198265
15 2 3.55247 7.47613 2.43698 0.00254806 -0.0196771 0.0113578
16 1 11.196 8.77754 10.9061 -0.00248116 0.00094636 -0.00343808
17 2 11.9565 9.2807 9.27588 -0.00393348 0.00111363 -0.0127363
18 2 12.1687 8.53763 11.1994 0.00382802 0.0232019 0.0176706
19 1 3.49108 4.26807 10.5819 0.00513769 -0.00159217 -0.000472304
20 2 3.72928 13.2079 10.9707 0.00923891 0.0124334 0.0161251
21 2 4.00524 5.85702 9.51857 0.00859573 0.00821837 0.00943971
22 1 11.0334 11.2086 2.42848 0.00421557 0.0023916 -0.00116102
23 2 10.5611 11.1847 3.27692 0.0103624 0.0100645 -0.0355807
24 2 10.9599 9.6114 11.4132 -0.00802638 0.0148665 -0.0193059
25 1 12.3039 7.61553 6.36319 0.00249673 0.000847186 -0.000128027
26 2 3.01976 8.28555 5.926 0.0363699 -0.0170978 0.0162578
27 2 4.44977 4.36401 2.81017 -0.0061013 -0.025807 0.00724242
28 1 9.22855 8.73487 4.09931 0.00115014 0.000450385 -0.00511654
29 2 8.42852 8.23014 4.28144 0.0210791 -0.00418313 -0.0198244
30 2 9.19237 9.45053 4.68382 0.0133446 0.00525523 -0.0227836
31 1 4.2499 9.74197 5.29256 0.00366446 -0.000277077 0.000695795
32 2 3.73389 10.6096 5.15688 0.0104336 0.0227464 0.00540284
33 2 4.72992 9.6077 4.43695 -0.00340451 -0.00981923 0.000545188
34 1 6.92099 13.3458 7.79268 -0.00905584 0.00708329 -0.000691211
35 2 5.96926 13.1568 7.90264 0.00123429 0.0140512 0.00223451
36 2 6.96001 4.50948 7.76696 0.00324637 0.00769586 -0.0313986
37 1 9.17062 12.7449 11.0657 0.00186225 0.000780332 -0.00651182
38 2 9.35408 12.7623 10.1049 0.0169242 0.0074046 -0.00298481
39 2 10.5481 11.9127 11.7971 -0.00303892 0.00685298 0.0136689
40 1 12.7471 12.3403 4.84492 0.00546008 -0.00488847 -0.00307861
41 2 4.14774 13.7479 4.24662 -0.0014337 -0.00659016 -0.0217163
42 2 11.9957 12.9682 4.86296 0.0363417 0.0101859 0.0247378
43 1 4.77946 4.31432 3.69549 -0.00123999 0.00490877 -0.00117122
44 2 11.9541 7.07611 4.32033 0.00474776 -0.0165366 -0.0012131
45 2 6.39226 7.57474 3.66729 0.00533045 -0.00361113 0.00286085
46 1 9.63306 12.6747 8.22125 -0.00182686 -0.00332388 0.000305969
47 2 8.66047 12.8611 8.19956 0.00259178 -0.0247116 0.00743949
48 2 9.6424 11.7937 8.24887 0.033847 -0.00653342 -0.00674438
49 1 9.81316 6.51042 9.75329 0.00495619 -0.00478364 0.000703309
50 2 9.91995 5.94853 10.5673 -0.0220128 0.00931979 0.0153262
51 2 10.2558 7.33768 10.0334 0.0229431 0.00314706 -0.00317504
52 1 9.37172 11.4034 4.96107 -0.00135015 -0.000603146 0.00177277
53 2 8.41527 11.6634 4.93506 -0.0275939 -0.0233033 0.024441
54 2 9.78812 12.2232 5.24706 -0.0223464 0.00084596 0.00203662
55 1 5.90661 9.36634 3.24214 -7.04492e-05 0.00441956 0.00214121
56 2 5.28123 8.92027 2.61845 0.02101 0.0103634 0.00933967
57 2 6.13176 10.1987 2.79121 0.0223464 0.00204169 -0.00736443
58 1 6.64765 11.5862 11.3771 -0.00228222 0.000280234 0.00314312
59 2 4.28757 11.8806 7.91879 0.00896062 0.0466838 -0.0183494
60 2 8.23955 12.3598 11.1793 -0.0109907 0.0174497 -0.0195009
61 1 6.69789 6.18639 7.27381 -0.000640312 -0.00173486 -0.00185847
62 2 6.42502 6.65406 8.02625 -0.0161532 -0.0144588 -0.00178506
63 2 5.9636 5.8991 6.72506 -0.00188945 -0.00265848 0.0010121
64 1 4.70964 10.4226 7.92085 -0.00244184 -0.00194554 0.00462527
65 2 4.65336 10.2971 6.91342 -0.0125403 0.0115964 0.0188535
66 2 3.49459 12.6101 5.55506 -0.0285429 -0.0066101 0.00610164
67 1 12.1799 9.31641 8.33962 -0.00127755 -0.00233559 0.0102057
68 2 12.3165 8.43919 7.94622 -0.00177571 0.0248121 -0.0101822
69 2 3.89396 9.86993 8.25954 -0.00526225 -0.00627866 0.0201057
70 1 10.3077 4.11982 5.21884 -0.00130211 0.00497856 8.69158e-05
71 2 10.2745 4.62764 4.37573 -0.00518525 0.0342437 0.0171539
72 2 9.77687 4.66621 5.77475 0.00543668 0.0165655 0.020526
73 1 9.28959 9.7137 7.32302 -0.00480905 -0.00348146 -0.00193383
74 2 10.0176 9.08526 7.44778 -0.0126445 0.00662195 0.00576724
75 2 9.38164 10.1114 6.43266 -0.0037041 0.00124285 -0.0364769
76 1 11.823 4.5743 8.41339 0.0053723 0.000498678 -0.00128405
77 2 11.3825 5.29856 8.84259 -0.00708476 0.000287523 0.000129688
78 2 2.96616 4.05784 9.82246 -0.000223853 0.010802 -0.0151756
79 1 4.56389 6.62509 9.36859 -0.000314118 -0.00237201 8.36733e-05
80 2 5.45593 6.25789 9.48042 -0.00395157 -0.0156735 0.0122138
81 2 5.70855 11.6098 11.1297 -0.0131742 0.0127355 -0.0125205
82 1 7.2408 7.20354 9.6852 -0.00644004 -0.00276695 -0.000339991
83 2 8.16926 6.97185 9.88904 -0.0232374 0.0134809 -0.0345995
84 2 7.22821 8.22874 9.63835 0.0118125 -0.0394731 -0.00907923
85 1 9.72118 5.57117 2.64664 -0.00375636 -0.000374747 -0.000962741
86 2 9.01098 6.15675 3.00306 -0.0115183 -0.00689628 0.0124399
87 2 11.1312 13.7675 8.12615 0.00539577 0.00631088 0.025896
88 1 6.91314 12.7235 5.01131 0.00485154 -0.00254647 0.000882191
89 2 7.07767 13.2671 5.86385 0.00661902 -0.0264939 -0.0022615
90 2 6.61546 13.4227 4.43618 -0.018452 0.0149715 0.0179078
91 1 4.26915 5.68013 5.92218 0.00279512 -0.00295777 -0.00201842
92 2 3.09631 6.85035 6.51286 0.0167935 0.0260949 0.0194939
93 2 4.04062 4.7978 6.27097 0.00396784 -0.00432741 -0.000642054
94 1 4.34818 12.9657 7.4948 -0.00169679 -0.00506439 0.00174531
95 2 3.76894 13.4716 8.07308 -0.00484209 -0.0452252 -0.00927137
96 2 4.08865 5.62184 4.92958 -0.00475289 0.00324831 0.0088814
ITEM: TIMESTEP
3
ITEM: NUMBER OF ATOMS
96
ITEM: BOX BOUNDS pp pp pp
2.9236100000000000e+00 1.2773600000000000e+01
4.0306300000000004e+00 1.3880599999999999e+01
2.1372399999999998e+00 1.1987200000000000e+01
ITEM: ATOMS id type x y z vx vy vz
1 1 6.92039 6.7565 3.66941 -0.00113892 0.00759533 9.39213e-05
2 2 6.2775 6.07673 3.89045 -0.0258237 -0.0238361 -0.00304249
3 2 9.34917 4.68091 2.83579 -0.0137497 -0.00395538 0.00872454
4 1 3.98582 11.8382 11.9224 0.00476616 -0.000723147 -0.00685444
5 2 4.3707 12.3167 2.86166 -0.00364994 -0.00533398 0.0039592
6 2 3.06161 11.6798 2.27963 0.0180819 0.00307279 0.0387827
7 1 12.2781 6.63021 3.43798 -0.00174044 -0.00385673 0.00718156
8 2 11.4423 6.37916 3.01103 -0.0149574 -0.00269872 0.0146134
9 2 7.87355 9.98814 8.43807 -0.000732803 -0.00150565 -0.0145201
10 1 7.29618 9.85751 9.22276 -0.00312023 0.00429274 -0.00141253
11 2 6.38716 10.0182 8.95825 0.000414094 -0.000511308 -0.00802644
12 2 6.9678 10.7491 11.0334 -0.00145742 -0.00260046 0.0242086
13 1 4.01407 7.98982 11.5739 -0.000945806 0.00372285 0.00121004
14 2 4.15223 7.37256 10.7562 -0.00669519 -0.00686024 -0.0176544
15 2 3.55359 7.46582 2.44264 0.00227305 -0.0210813 0.0106075
16 1 11.1949 8.77803 10.9044 -0.00190957 0.00105784 -0.00325417
17 2 11.9541 9.28036 9.27045 -0.00580686 -0.00258078 -0.00814251
18 2 12.1685 8.54983 11.2078 -0.00452818 0.0254376 0.0157894
19 1 3.49372 4.26722 10.5817 0.00540918 -0.00176573 -0.000163385
20 2 3.73401 13.2147 10.979 0.0094873 0.0145787 0.0166971
21 2 4.009 5.8605 9.52342 0.00603101 0.00535896 0.00999101
22 1 11.0355 11.2098 2.42791 0.00427842 0.00235363 -0.00117268
23 2 10.5664 11.1892 3.25963 0.0102917 0.00786136 -0.0322121
24 2 10.9564 9.61802 11.4032 -0.00613517 0.0114894 -0.0207762
25 1 12.3052 7.61593 6.36312 0.00275622 0.000767871 -0.000167512
26 2 3.03764 8.2772 5.93427 0.0348563 -0.0159004 0.0166564
27 2 4.44583 4.35096 2.81325 -0.00956276 -0.0262601 0.00466704
28 1 9.22912 8.73498 4.0967 0.00119512 1.888e-05 -0.00533789
29 2 8.43903 8.22798 4.27119 0.0203168 -0.00467857 -0.0208752
30 2 9.19903 9.45457 4.67325 0.0131227 0.011047 -0.0193095
31 1 4.25163 9.74194 5.29294 0.00322768 0.000152386 0.0008162
32 2 3.73975 10.6196 5.15963 0.0132524 0.0168721 0.00557878
33 2 4.72869 9.6028 4.43717 -0.00159684 -0.00967364 0.000378277
34 1 6.91654 13.3495 7.79233 -0.00870832 0.00754921 -0.000704608
35 2 5.96842 13.163 7.90367 -0.00459963 0.0107724 0.00199704
36 2 6.96206 4.51294 7.75116 0.00483981 0.00615716 -0.0317497
37 1 9.17149 12.7453 11.0624 0.00161788 0.000751733 -0.00651996
38 2 9.36234 12.766 10.1037 0.0160471 0.00727495 -0.00199415
39 2 10.5462 11.9165 11.8032 -0.00431091 0.00812829 0.0103102
40 1 12.7498 12.3379 4.84338 0.00551628 -0.00482708 -0.00309086
41 2 4.14579 13.7438 4.2358 -0.00638925 -0.0101005 -0.0211685
42 2 12.0143 12.9729 4.87578 0.0373768 0.00866068 0.0261753
43 1 4.77899 4.31685 3.6949 -0.000669207 0.00521079 -0.00118615
44 2 11.9575 7.06675 4.31752 0.00882209 -0.020576 -0.0094305
45 2 6.39544 7.57246 3.66863 0.00712648 -0.00514379 0.00252197
46 1 9.6321 12.6732 8.22144 -0.00198508 -0.00253768 0.000449353
47 2 8.66181 12.8493 8.20299 0.00256437 -0.0225723 0.00627305
48 2 9.65996 11.7862 8.24526 0.0362476 -0.0227394 -0.00776189
49 1 9.8157 6.508 9.75371 0.00520749 -0.00486277 0.000983772
50 2 9.90849 5.95344 10.5745 -0.0237712 0.0103572 0.0132627
51 2 10.2671 7.33939 10.0316 0.0222676 0.00318365 -0.00419933
52 1 9.37099 11.4031 4.96196 -0.00164367 -0.000724056 0.00179047
53 2 8.40128 11.6514 4.94703 -0.0275795 -0.0247222 0.0234235
54 2 9.77798 12.2243 5.24832 -0.0182237 0.0035859 0.00302985
55 1 5.90658 9.36854 3.24318 -9.47061e-06 0.00442311 0.00204596
56 2 5.29161 8.92528 2.62293 0.0199875 0.00936009 0.00810646
57 2 6.143 10.2001 2.78773 0.0225345 0.00335167 -0.00643643
58 1 6.64653 11.5864 11.3787 -0.00225133 0.000287357 0.00321178
59 2 4.29234 11.9072 7.90809 0.0101265 0.0582897 -0.0239809
60 2 8.23532 12.369 11.1692 -0.00585218 0.0195595 -0.0206196
61 1 6.69771 6.18541 7.27277 -7.12158e-05 -0.00216139 -0.00231729
62 2 6.41607 6.64784 8.02699 -0.0195412 -0.0105001 0.0046515
63 2 5.96147 5.89821 6.72554 -0.00656115 -0.000953921 0.000815463
64 1 4.7084 10.4216 7.92315 -0.00254123 -0.00211108 0.00458491
65 2 4.64748 10.3028 6.92312 -0.011036 0.0110349 0.0197396
66 2 3.47981 12.6069 5.55844 -0.0298381 -0.00620167 0.00780573
67 1 12.1793 9.31537 8.34469 -0.001169 -0.00179811 0.0100305
68 2 12.3154 8.4505 7.94081 -0.00248549 0.0197595 -0.0116012
69 2 3.89118 9.86731 8.26966 -0.00535744 -0.00393668 0.0200914
70 1 10.307 4.12235 5.21881 -0.00124756 0.00518637 -0.000199424
71 2 10.2721 4.64429 4.38497 -0.00439347 0.032213 0.0197605
72 2 9.77935 4.67464 5.7856 0.00488099 0.016679 0.0225318
73 1 9.28717 9.71196 7.32204 -0.00484661 -0.00341565 -0.00206761
74 2 10.0112 9.08925 7.45023 -0.0125769 0.00906553 0.00402625
75 2 9.38016 10.1118 6.41494 -0.00230722 -0.000225851 -0.0333193
76 1 11.8257 4.57449 8.41271 0.00555422 0.000284857 -0.00141182
77 2 11.378 5.29882 8.84268 -0.0106509 0.000694654 0.000196749
78 2 2.96491 4.06353 9.81348 -0.00436188 0.0117733 -0.0200959
79 1 4.56372 6.6239 9.3686 -0.000320173 -0.00239955 -6.87665e-05
80 2 5.45436 6.25067 9.4868 -0.00231581 -0.013087 0.01328
81 2 5.70193 11.6163 11.1235 -0.0127074 0.0130277 -0.0120584
82 1 7.23752 7.20222 9.68505 -0.00670557 -0.00253505 -0.00027325
83 2 8.15848 6.97802 9.87159 -0.0187977 0.0104671 -0.0349451
84 2 7.23401 8.20823 9.63357 0.0108827 -0.0410056 -0.0101308
85 1 9.71924 5.57099 2.64621 -0.00403915 -0.000394865 -0.000749802
86 2 9.00579 6.15265 3.00883 -0.00906386 -0.00948669 0.010502
87 2 11.1341 13.7716 8.13965 0.00618294 0.00984314 0.0278223
88 1 6.91562 12.7224 5.01187 0.00506235 -0.00211321 0.00132224
89 2 7.08056 13.252 5.86166 0.00505251 -0.0333851 -0.00594539
90 2 6.60568 13.4299 4.44447 -0.0205491 0.0135679 0.0154273
91 1 4.27053 5.67865 5.9211 0.00270918 -0.0029941 -0.00224111
92 2 3.10413 6.86361 6.52241 0.0142965 0.0264397 0.0189766
93 2 4.04276 4.79588 6.27055 0.00458257 -0.00326611 -0.0010867
94 1 4.34727 12.963 7.49576 -0.00192143 -0.00578617 0.00201231
95 2 3.76655 13.4488 8.06826 -0.00550132 -0.0447913 -0.00932967
96 2 4.08661 5.62333 4.93539 -0.00349804 0.00265687 0.0139527
ITEM: TIMESTEP
4
ITEM: NUMBER OF ATOMS
96
ITEM: BOX BOUNDS pp pp pp
2.9236100000000000e+00 1.2773600000000000e+01
4.0306300000000004e+00 1.3880599999999999e+01
2.1372399999999998e+00 1.1987200000000000e+01
ITEM: ATOMS id type x y z vx vy vz
1 1 6.91982 6.76028 3.66948 -0.00117284 0.0074453 0.000195204
2 2 6.26459 6.06483 3.8888 -0.024854 -0.0226401 -0.00390228
3 2 9.34267 4.67982 2.83944 -0.0120149 -0.00027386 0.00577618
4 1 3.98827 11.8379 11.9189 0.00502155 -0.000567291 -0.00683259
5 2 4.36803 12.3134 2.86308 -0.00666508 -0.0078373 0.00157477
6 2 3.07008 11.6812 2.29966 0.0156543 0.0022871 0.0409972
7 1 12.2772 6.62833 3.44171 -0.00199192 -0.00368338 0.00769802
8 2 11.435 6.37783 3.01835 -0.01412 -0.00259237 0.014627
9 2 7.87303 9.98715 8.43062 -0.00156122 -0.00250029 -0.0148161
10 1 7.29463 9.85966 9.22213 -0.00303945 0.00429076 -0.00116387
11 2 6.38711 10.0181 8.95347 -0.000653755 0.000282892 -0.0110366
12 2 6.9671 10.7476 11.0449 -0.00139087 -0.00354065 0.0216331
13 1 4.01356 7.99171 11.5745 -0.00112388 0.00377022 0.00120934
14 2 4.149 7.36946 10.748 -0.00629779 -0.00507886 -0.0142327
15 2 3.55475 7.45505 2.44759 0.00271008 -0.0214739 0.00856941
16 1 11.1941 8.77859 10.9029 -0.0013434 0.00119226 -0.00304987
17 2 11.9507 9.27812 9.26774 -0.00799607 -0.00647687 -0.00210191
18 2 12.1641 8.56306 11.2152 -0.0125198 0.0271906 0.0137198
19 1 3.49648 4.2663 10.5817 0.00563227 -0.00188531 7.90332e-05
20 2 3.73876 13.2225 10.9874 0.00932791 0.016263 0.0166588
21 2 4.01127 5.86238 9.52856 0.00278371 0.00194935 0.0105547
22 1 11.0377 11.211 2.4273 0.00438029 0.0023422 -0.00130935
23 2 10.5714 11.1925 3.2447 0.00931246 0.00513618 -0.0263158
24 2 10.9538 9.62289 11.3924 -0.0044788 0.00804703 -0.0222791
25 1 12.3066 7.6163 6.36303 0.00306312 0.000709922 -0.000219978
26 2 3.05461 8.26965 5.94266 0.0327169 -0.0139241 0.0167172
27 2 4.44021 4.33775 2.81484 -0.0126572 -0.0264651 0.00148914
28 1 9.22975 8.73489 4.09397 0.00134096 -0.000382921 -0.00560566
29 2 8.44883 8.22546 4.26056 0.018306 -0.00556656 -0.0213447
30 2 9.20549 9.46157 4.66451 0.0125228 0.0167778 -0.0156955
31 1 4.25313 9.74213 5.29338 0.00277972 0.000615265 0.000930969
32 2 3.74714 10.6265 5.16246 0.0164215 0.0102842 0.00569473
33 2 4.72832 9.59802 4.43733 4.81855e-06 -0.00937077 0.000316034
34 1 6.91228 13.3534 7.79198 -0.00832031 0.00799405 -0.000721853
35 2 5.96466 13.1676 7.90464 -0.0101321 0.00781009 0.00195209
36 2 6.96485 4.51564 7.73521 0.00615554 0.00462898 -0.0319313
37 1 9.17223 12.7457 11.0592 0.00136745 0.000733303 -0.00652352
38 2 9.37013 12.7696 10.1029 0.0151143 0.00711712 -0.00119219
39 2 10.5438 11.9209 11.8074 -0.00520737 0.00944282 0.00646176
40 1 12.7526 12.3355 4.84183 0.00557538 -0.00478369 -0.0031129
41 2 4.14135 13.7378 4.22545 -0.0111205 -0.0136375 -0.020004
42 2 12.0331 12.9769 4.88913 0.03681 0.0076005 0.0268247
43 1 4.77879 4.31953 3.6943 -0.000124291 0.00550754 -0.00120194
44 2 11.9629 7.05553 4.3109 0.0125815 -0.0237952 -0.0162111
45 2 6.39938 7.56959 3.66981 0.00827832 -0.00589601 0.00220981
46 1 9.63107 12.6721 8.2217 -0.00210816 -0.00187648 0.000600897
47 2 8.66304 12.8386 8.20583 0.0022343 -0.0208563 0.00509315
48 2 9.67865 11.7709 8.24111 0.0382003 -0.0365348 -0.00890278
49 1 9.81837 6.50556 9.75427 0.00549097 -0.00488356 0.00128544
50 2 9.89617 5.95889 10.5806 -0.0254151 0.0114252 0.0111163
51 2 10.278 7.34087 10.0292 0.0210648 0.00224011 -0.00547394
52 1 9.37008 11.4027 4.96286 -0.00203332 -0.000852218 0.00182051
53 2 8.38769 11.6387 4.95849 -0.0260044 -0.0261999 0.0223771
54 2 9.7699 12.2268 5.25009 -0.0142216 0.00651918 0.00396891
55 1 5.9066 9.37076 3.24418 0.000126197 0.00448784 0.00198835
56 2 5.30122 8.92963 2.62655 0.0180182 0.00771262 0.00595057
57 2 6.1543 10.2021 2.78477 0.0225178 0.00428862 -0.00524765
58 1 6.6454 11.5865 11.3803 -0.00228186 0.000325992 0.00327586
59 2 4.2977 11.9388 7.89481 0.0113273 0.066412 -0.0284949
60 2 8.2337 12.3793 11.1586 -0.000778166 0.0215352 -0.0217072
61 1 6.69782 6.18423 7.2715 0.000459196 -0.00256077 -0.0027481
62 2 6.40548 6.64356 8.0309 -0.0225864 -0.00691132 0.0105851
63 2 5.95704 5.89815 6.72588 -0.0109597 0.000707402 0.000568253
64 1 4.7071 10.4205 7.92544 -0.00267447 -0.00232727 0.0046084
65 2 4.64233 10.3082 6.93316 -0.00960995 0.010273 0.0202447
66 2 3.46476 12.6039 5.56287 -0.0296579 -0.00609476 0.0102186
67 1 12.1788 9.31462 8.34965 -0.00104641 -0.00117872 0.0097814
68 2 12.314 8.45895 7.93461 -0.00311943 0.0136543 -0.0132802
69 2 3.8886 9.86599 8.27963 -0.00450835 -0.00111198 0.0195569
70 1 10.3064 4.12501 5.21865 -0.00126035 0.00546754 -0.000424056
71 2 10.2701 4.65985 4.39549 -0.00347344 0.029966 0.0221446
72 2 9.78175 4.68289 5.79728 0.00515661 0.0158008 0.0238237
73 1 9.28474 9.71029 7.32096 -0.00491421 -0.00325588 -0.00233014
74 2 10.005 9.09433 7.4518 -0.0118477 0.0109176 0.00234336
75 2 9.37933 10.1112 6.39934 -0.00110908 -0.00244545 -0.0281931
76 1 11.8285 4.57459 8.41198 0.00573606 0.000150148 -0.00148883
77 2 11.3719 5.29925 8.84279 -0.0136372 0.000985095 0.000166068
78 2 2.9618 4.06962 9.80236 -0.00750595 0.0124083 -0.0235486
79 1 4.56357 6.62269 9.36852 -0.000288438 -0.00240487 -0.000219294