ITEM: TIMESTEP
0
ITEM: NUMBER OF ATOMS
96
ITEM: BOX BOUNDS pp pp pp
2.9236100000000000e+00 1.2773600000000000e+01
4.0306300000000004e+00 1.3880599999999999e+01
2.1372399999999998e+00 1.1987200000000000e+01
ITEM: ATOMS id type x y z vx vy vz
1 1 5.67022 4.15351 2.52432 0.00223197 0.00287844 0.00489094
2 2 5.43283 13.0388 2.59247 0.0244164 -0.0280757 -0.0217494
3 2 11.0293 13.2909 11.6552 -0.0215783 -0.0152462 -0.00980499
4 1 12.6358 12.9048 11.3951 -0.0033818 -0.00195759 -0.00343838
5 2 12.6815 12.0072 11.0866 0.0117544 -0.00472757 0.0130404
6 2 3.40774 12.8891 2.29377 0.000572113 -0.0388646 0.0169443
7 1 11.6416 7.24653 3.846 0.000675747 -0.0012964 -0.00131385
8 2 10.8101 7.17183 4.34357 -0.00766766 -0.00182619 -0.00232686
9 2 9.70181 8.87772 7.63553 -0.00846679 -0.0216844 -0.0110026
10 1 8.81268 8.76451 7.96686 0.00130079 0.00279163 -0.0024096
11 2 8.65653 7.81065 7.94332 -0.011011 -0.00720291 0.0048247
12 2 7.20655 9.80291 9.15879 6.44965e-05 -0.00918042 -0.0021406
13 1 6.55663 9.01673 2.24224 -0.00878959 0.00263649 -0.00235215
14 2 6.83412 9.55689 11.2748 0.00855054 0.0183044 0.0238552
15 2 5.86365 8.4061 11.7747 0.0203464 -0.0204397 -0.00990195
16 1 8.58817 7.21203 2.17346 -0.00540411 0.00113122 0.00979063
17 2 8.90779 6.5509 3.68522 0.00701794 -0.00971317 -0.00117776
18 2 7.77108 7.89158 2.22961 0.0268904 -0.0264435 -0.0128355
19 1 4.11765 7.58045 11.7682 0.00339132 -0.00108872 -0.00498218
20 2 3.31337 7.62152 2.4717 0.0240913 0.0194562 0.0112158
21 2 12.2335 10.0815 11.2488 0.0324894 -0.000968162 -0.00237522
22 1 10.4003 9.56562 2.15474 0.00108519 0.00330808 0.00550876
23 2 10.0504 9.68365 3.03701 0.015984 -0.0287807 0.0158322
24 2 9.31818 7.8492 11.8263 -0.0268578 -0.0170434 -0.0254836
25 1 4.20466 8.52491 6.78428 0.00266832 0.00192259 0.00648417
26 2 3.81614 8.89358 5.98412 0.029107 0.0181051 0.00844748
27 2 12.4838 5.70065 4.16199 -0.015069 0.0115471 -0.00522458
28 1 8.97636 6.70823 4.72522 0.00537004 0.00464118 0.00402272
29 2 9.43379 5.84552 5.08368 0.0101429 -0.0218212 -0.0172054
30 2 7.46233 5.91349 4.98536 -0.00653103 -0.00880029 0.007427
31 1 3.17149 9.6824 4.48788 -0.00433506 0.00346883 0.00403134
32 2 12.3908 10.3069 4.99932 -0.021397 0.00585933 0.0314868
33 2 3.91324 10.271 4.31108 0.006281 -0.00956962 0.00893644
34 1 8.24268 5.38113 8.05637 0.00530187 -0.00265088 -0.00648555
35 2 8.56713 4.48721 7.85453 -0.00439501 0.0079181 0.0227574
36 2 7.51022 5.25185 8.72312 -0.00892366 -0.0204417 0.0225441
37 1 8.91872 11.6652 10.417 -0.00538591 -0.00352855 -0.00181435
38 2 9.28357 11.9926 9.54993 0.0113385 0.00389434 0.0123342
39 2 9.91327 10.2377 11.5137 0.00306747 0.00485156 -0.00103673
40 1 12.1424 12.1579 5.16609 0.00637363 0.00188367 -0.00280142
41 2 12.6853 4.18476 4.64144 0.0181226 0.0228979 0.00594332
42 2 11.1781 12.3248 5.10354 -0.0140709 -0.000747243 0.0172573
43 1 3.21454 4.9564 4.14287 0.00513795 -0.00172 -0.00495755
44 2 11.9152 8.17141 4.0141 0.0011618 0.0237894 -0.0389827
45 2 5.03262 4.63892 3.01143 0.0309265 0.0131821 -0.00714931
46 1 9.62946 12.5315 7.8982 -0.00126699 -0.000671425 -0.0019149
47 2 8.96665 11.9736 7.35629 0.00124369 0.000941327 -0.00555126
48 2 10.5108 12.0794 7.77038 -0.00272432 -0.00967459 -0.0131928
49 1 10.4077 6.36925 9.81426 0.00662908 0.00356742 0.00297234
50 2 9.55205 6.40053 9.34181 -0.00683247 -0.00591181 0.00525577
51 2 10.2769 5.65669 10.4089 0.000741308 0.00557229 0.0204507
52 1 9.69677 9.55755 4.8804 -0.00194658 3.98936e-05 -6.22871e-05
53 2 9.21974 8.72254 4.99968 0.00949739 -0.0287788 0.00309143
54 2 9.14359 10.1675 5.28791 0.00932127 -0.000324082 -0.0176713
55 1 4.63962 11.4767 2.96891 -0.0021271 -0.00858129 -0.000246712
56 2 5.40245 10.8599 2.93562 0.0240096 -0.00972653 0.0297126
57 2 4.12611 11.1948 2.19026 -0.00484475 -0.00440275 -0.00486676
58 1 6.6254 10.5353 9.51298 0.00118628 0.00416235 0.00215546
59 2 4.76443 12.1564 7.16306 0.00316253 -0.0246153 -0.00956482
60 2 7.97759 11.2739 10.1542 0.013807 -0.024123 0.0185324
61 1 7.10904 5.25664 5.66296 -0.00190445 -0.00267383 0.00333307
62 2 7.57695 5.42861 6.50962 -0.00196867 -0.0482315 -0.00830157
63 2 5.73599 5.86376 6.04706 -0.0175664 -0.0143791 -0.0041924
64 1 5.26445 11.3347 7.17635 -0.00829528 0.000229017 -0.00487049
65 2 4.62351 10.7132 6.73257 0.0138491 0.00409198 -0.0138939
66 2 12.3373 12.2191 6.06974 0.0160438 -0.0217838 0.0113353
67 1 12.1827 11.776 8.15485 -0.0042106 -0.00525506 -0.0062957
68 2 3.00981 12.4301 8.42009 -0.00955167 -0.00206055 -0.00737085
69 2 12.3592 10.9578 8.58291 0.00295129 0.00681542 -0.013842
70 1 9.79376 4.16854 4.73765 0.00386861 0.0119959 -0.00188049
71 2 9.79735 4.08618 3.76521 0.00310714 0.0169393 0.00608858
72 2 9.29003 13.2388 5.06747 -0.0241412 0.0132241 -0.0101193
73 1 11.7213 8.41055 8.15595 -0.000752059 -0.00138524 -0.000388807
74 2 11.3492 7.80954 8.86318 -0.00331282 0.00705867 0.00382252
75 2 12.6274 8.13596 8.00324 -0.00761149 -0.0132959 -0.00387516
76 1 3.21425 5.53341 10.0663 -0.00116595 0.00492239 -0.00374327
77 2 12.1776 5.89311 9.86025 0.00143067 0.0140452 0.0207826
78 2 3.82725 6.78753 11.2557 -0.00616901 0.0208415 -0.00586876
79 1 3.09343 10.2705 10.6078 0.00718224 0.0011128 0.00570504
80 2 3.56472 9.47973 10.7499 0.0100406 0.019695 0.038407
81 2 6.29127 10.9547 8.67827 -0.0242612 0.00882271 -0.0132969
82 1 6.0409 5.69769 9.55593 0.00150183 -0.00315874 -0.000686151
83 2 5.16685 5.76641 9.203 0.00289399 0.0195158 -0.0042136
84 2 5.9276 5.26988 10.4155 -0.0370609 0.00683023 0.00711278
85 1 10.0931 13.6396 11.8372 -0.00242425 -0.000899802 -0.00281203
86 2 9.48939 13.0164 11.3323 0.00450758 0.0157887 -0.00323012
87 2 3.02891 4.79168 10.6942 -0.00816073 -0.0155233 -0.0172247
88 1 7.97797 11.9483 5.8683 -0.00914502 -0.000462748 0.00401654
89 2 7.16803 11.548 6.27529 -0.0107103 -0.00494644 -0.0100644
90 2 7.62674 12.7965 5.53758 -0.0151462 -0.00280787 0.0198002
91 1 4.65965 5.83733 6.09455 0.00356282 0.00168726 -0.00234988
92 2 4.10112 7.56864 6.56949 0.00314178 0.023154 -0.000855131
93 2 4.371 4.80202 7.25626 0.00377991 0.01033 0.0133021
94 1 4.09418 4.06526 7.97131 -0.00388844 -0.00748378 -0.00196972
95 2 3.53714 4.54962 8.66512 0.0135191 0.030933 0.00516656
96 2 4.4166 5.28252 5.20851 0.0170583 -0.00406362 -0.0129038
ITEM: TIMESTEP
1
ITEM: NUMBER OF ATOMS
96
ITEM: BOX BOUNDS pp pp pp
2.9236100000000000e+00 1.2773600000000000e+01
4.0306300000000004e+00 1.3880599999999999e+01
2.1372399999999998e+00 1.1987200000000000e+01
ITEM: ATOMS id type x y z vx vy vz
1 1 5.67139 4.1549 2.52671 0.00251033 0.00262975 0.00461815
2 2 5.44493 13.0256 2.5818 0.023741 -0.0238674 -0.0206621
3 2 11.0177 13.2837 11.6508 -0.0239147 -0.0135414 -0.0079763
4 1 12.6341 12.9039 11.3934 -0.00319923 -0.00168299 -0.00333431
5 2 12.687 12.0036 11.092 0.00996175 -0.00947948 0.00827341
6 2 3.40798 12.8703 2.30285 -0.00011909 -0.0357292 0.0188918
7 1 11.6419 7.24591 3.84536 0.000660949 -0.00114313 -0.00123435
8 2 10.806 7.17085 4.34219 -0.00838597 -0.00190821 -0.00328902
9 2 9.69772 8.86641 7.63027 -0.00757955 -0.0233999 -0.0101375
10 1 8.81328 8.76589 7.96566 0.00108814 0.00271433 -0.00237643
11 2 8.65139 7.80753 7.94564 -0.00957434 -0.00489247 0.00445844
12 2 7.20599 9.79894 9.15781 -0.00257801 -0.00631579 -0.00170401
13 1 6.55231 9.01809 2.24099 -0.00851901 0.0028046 -0.0026314
14 2 6.83744 9.565 11.288 0.00464342 0.014151 0.0285612
15 2 5.87364 8.39621 11.7698 0.0195959 -0.0190158 -0.00981013
16 1 8.58541 7.21274 2.17836 -0.00562117 0.00161239 0.00979803
17 2 8.91127 6.54697 3.68588 0.00681807 -0.00577534 0.00413358
18 2 7.78508 7.87703 2.22345 0.0280281 -0.031083 -0.0116003
19 1 4.11923 7.57985 11.7657 0.00295235 -0.00127633 -0.00498308
20 2 3.32621 7.63225 2.47801 0.0269796 0.0232583 0.014051
21 2 12.249 10.0815 11.2473 0.0281788 0.00105561 -0.00250274
22 1 10.4008 9.56729 2.15744 0.000989186 0.00335656 0.00529662
23 2 10.0585 9.66893 3.04614 0.0164165 -0.0298727 0.0203666
24 2 9.30506 7.83985 11.8138 -0.0247401 -0.0198331 -0.0246233
25 1 4.20597 8.52579 6.78752 0.00259024 0.00162927 0.00648049
26 2 3.83034 8.90412 5.98761 0.0276115 0.0240185 0.00535048
27 2 12.4749 5.70756 4.15975 -0.0199584 0.0153902 -0.00380241
28 1 8.97908 6.71042 4.72718 0.00552966 0.00408882 0.00378541
29 2 9.43781 5.83576 5.07405 0.00581524 -0.0168517 -0.0210661
30 2 7.45972 5.9094 4.98931 -0.00375513 -0.00736515 0.00836369
31 1 3.16925 9.68419 4.49 -0.00464409 0.00371801 0.00448107
32 2 12.3808 10.309 5.01387 -0.0178599 0.00238539 0.026166
33 2 3.91656 10.2663 4.31486 0.00669874 -0.00892566 0.00627104
34 1 8.24536 5.37981 8.05314 0.00534893 -0.00262195 -0.00635887
35 2 8.56523 4.49102 7.86625 -0.00282329 0.00679501 0.023821
36 2 7.50577 5.24177 8.73402 -0.00815066 -0.019444 0.0203373
37 1 8.91594 11.6634 10.416 -0.00568229 -0.00369382 -0.00198568
38 2 9.28938 11.9946 9.55592 0.0116289 0.00410384 0.0114369
39 2 9.91487 10.2403 11.5125 0.0033107 0.00539905 -0.00342326
40 1 12.1455 12.1588 5.1646 0.00614374 0.00188462 -0.00312119
41 2 12.6939 4.19672 4.644 0.016044 0.0244376 0.00454411
42 2 11.1719 12.3246 5.11243 -0.0100964 -0.000286769 0.018266
43 1 3.21727 4.95539 4.14039 0.00575659 -0.00224977 -0.00495373
44 2 11.9159 8.18318 3.99452 0.00149651 0.0226083 -0.0392502
45 2 5.04723 4.64561 3.00843 0.0268631 0.0134743 -0.00444458
46 1 9.62876 12.5311 7.89722 -0.0015222 -0.000982951 -0.00199058
47 2 8.96812 11.9752 7.35383 0.00446476 0.00556873 -0.00431152
48 2 10.5091 12.075 7.76406 -0.00424712 -0.00766745 -0.0119972
49 1 10.411 6.37108 9.81568 0.00654926 0.00373433 0.00273182
50 2 9.54913 6.3973 9.34465 -0.00448011 -0.00698335 0.00624665
51 2 10.2769 5.65874 10.42 -0.000760166 0.00309477 0.0234518
52 1 9.69584 9.55749 4.88034 -0.0017467 -0.000318191 -0.000193006
53 2 9.22472 8.70806 5.00108 0.0106332 -0.0283627 0.00251643
54 2 9.14714 10.1688 5.27982 0.00448721 0.00555804 -0.014473
55 1 4.63863 11.4724 2.96878 -0.00181618 -0.00875125 -0.000254637
56 2 5.4141 10.8552 2.95039 0.0218785 -0.00862341 0.0291227
57 2 4.12382 11.1925 2.18797 -0.00396718 -0.00498875 -0.00417036
58 1 6.62607 10.5373 9.51402 0.00145933 0.00395506 0.00195762
59 2 4.76612 12.1443 7.15877 0.00294877 -0.022728 -0.00762296
60 2 7.98566 11.2626 10.164 0.0180678 -0.0212167 0.0202239
61 1 7.10806 5.25524 5.66452 -0.00203641 -0.00297584 0.00287688
62 2 7.57668 5.40492 6.50658 0.00117037 -0.0462921 -0.0034823
63 2 5.72563 5.85669 6.04525 -0.0232964 -0.0136213 -0.00278361
64 1 5.26025 11.3348 7.17383 -0.00841843 4.7784e-05 -0.0052025
65 2 4.63159 10.7157 6.72659 0.0180063 0.00541515 -0.0102951
66 2 12.3452 12.2083 6.07705 0.0154459 -0.0214571 0.0170521
67 1 12.1806 11.7734 8.15162 -0.00430162 -0.00505426 -0.00662821
68 2 3.00518 12.4288 8.41648 -0.0088639 -0.0030484 -0.00703849
69 2 12.3612 10.9606 8.57698 0.00520868 0.00379308 -0.00968211
70 1 9.7957 4.17451 4.73675 0.00387871 0.0118504 -0.00170073
71 2 9.79899 4.09458 3.76766 0.00347111 0.0166746 0.00349776
72 2 9.27817 13.2461 5.0623 -0.0231398 0.0162997 -0.0106248
73 1 11.7208 8.40981 8.15582 -0.00106876 -0.00155609 -0.000145123
74 2 11.3483 7.81381 8.86404 -0.000507673 0.0099074 -0.000267821
75 2 12.6239 8.12953 8.00113 -0.00634672 -0.0124439 -0.00455084
76 1 3.21366 5.53584 10.0644 -0.00119845 0.00476173 -0.00377832
77 2 12.1782 5.90031 9.87054 0.000716645 0.0148748 0.020227
78 2 3.82555 6.79824 11.2522 -0.000999259 0.0215038 -0.00849933
79 1 3.09697 10.2711 10.6107 0.00700223 0.00117892 0.00579211
80 2 3.57126 9.48825 10.7688 0.0170883 0.0136961 0.0368184
81 2 6.27896 10.959 8.67207 -0.0245482 0.00773579 -0.0107381
82 1 6.04171 5.69613 9.55563 0.00172036 -0.00310873 -0.000515785
83 2 5.16758 5.77578 9.20101 0.00022038 0.0180502 -0.00383561
84 2 5.90882 5.27327 10.419 -0.0378466 0.00684336 0.0065521
85 1 10.0919 13.6391 11.8358 -0.00243971 -0.000960159 -0.00293253
86 2 9.49175 13.0246 11.3311 0.00438813 0.0165695 -0.00184444
87 2 3.02505 4.78403 10.6853 -0.00713987 -0.0149318 -0.0183846
88 1 7.97333 11.948 5.87032 -0.00941542 -0.000564031 0.00406398
89 2 7.16332 11.5461 6.26982 -0.0081775 -0.00282648 -0.0116947
90 2 7.61931 12.7947 5.54795 -0.014595 -0.00396042 0.021561
91 1 4.66145 5.83812 6.09325 0.00361149 0.00146211 -0.00286208
92 2 4.10356 7.5799 6.56994 0.0064609 0.0211451 0.00243538
93 2 4.37254 4.80633 7.2637 0.00247542 0.00660342 0.0162553
94 1 4.09219 4.06157 7.97033 -0.00408394 -0.00720506 -0.00194464
95 2 3.54489 4.56479 8.66702 0.0175119 0.0292405 0.0024191
96 2 4.42488 5.28186 5.20375 0.0157188 0.0014721 -0.00608816
ITEM: TIMESTEP
2
ITEM: NUMBER OF ATOMS
96
ITEM: BOX BOUNDS pp pp pp
2.9236100000000000e+00 1.2773600000000000e+01
4.0306300000000004e+00 1.3880599999999999e+01
2.1372399999999998e+00 1.1987200000000000e+01
ITEM: ATOMS id type x y z vx vy vz
1 1 5.67273 4.15614 2.52894 0.0028703 0.00225966 0.00427602
2 2 5.45657 13.0149 2.57181 0.0226187 -0.017846 -0.0190771
3 2 11.0054 13.2774 11.6472 -0.0247428 -0.0119752 -0.00615458
4 1 12.6326 12.9031 11.3918 -0.00293109 -0.00148174 -0.00313641
5 2 12.6915 11.9977 11.0949 0.00766915 -0.0136447 0.00303269
6 2 3.40762 12.8534 2.31266 -0.00186011 -0.0316601 0.0198274
7 1 11.6423 7.24539 3.84477 0.000653355 -0.000936122 -0.00114549
8 2 10.8017 7.16992 4.34028 -0.00851382 -0.00157913 -0.00444948
9 2 9.69423 8.85432 7.62539 -0.00608944 -0.0247889 -0.00949767
10 1 8.81377 8.76722 7.96448 0.000838339 0.00257571 -0.002332
11 2 8.64696 7.80576 7.94778 -0.00820068 -0.00193153 0.00414257
12 2 7.20397 9.79659 9.15709 -0.00566441 -0.00279191 -0.00118147
13 1 6.54811 9.01953 2.23961 -0.00827506 0.00298734 -0.00283353
14 2 6.83876 9.57104 11.3034 0.000650192 0.0101747 0.0322905
15 2 5.88325 8.38708 11.7649 0.0187766 -0.0173884 -0.0100329
16 1 8.58255 7.21364 2.18326 -0.00577461 0.00190154 0.00977813
17 2 8.91461 6.54512 3.68935 0.00640696 -0.00140328 0.00976337
18 2 7.79911 7.8605 2.21801 0.0269481 -0.0342356 -0.00997181
19 1 4.1206 7.57917 11.7632 0.00260252 -0.00137716 -0.00495865
20 2 3.34035 7.64478 2.48575 0.029269 0.0265589 0.0169131
21 2 12.2617 10.0826 11.2463 0.0210056 0.0034311 -0.000887034
22 1 10.4013 9.56898 2.16004 0.000904944 0.00339883 0.00508193
23 2 10.0668 9.65378 3.05738 0.0166026 -0.0304971 0.0240994
24 2 9.29344 7.82937 11.8017 -0.0209576 -0.021572 -0.0240871
25 1 4.20725 8.52654 6.79076 0.00253656 0.00143528 0.00650998
26 2 3.84375 8.9176 5.98947 0.0260313 0.0296728 0.00216924
27 2 12.4638 5.71604 4.15819 -0.0233578 0.0176667 -0.00253524
28 1 8.98189 6.71232 4.72901 0.00572283 0.00348435 0.00350941
29 2 9.43961 5.82867 5.06261 0.00137634 -0.011439 -0.0242438
30 2 7.45857 5.90612 4.99372 -0.000712545 -0.00565193 0.00933463
31 1 3.16685 9.68612 4.49236 -0.00499775 0.00397771 0.00496271
32 2 12.3729 10.3093 5.02549 -0.0130875 -0.00134023 0.0199592
33 2 3.91994 10.2621 4.31735 0.00654007 -0.00807106 0.00381786
34 1 8.24803 5.37851 8.05001 0.00525821 -0.00257846 -0.00608676
35 2 8.56431 4.49401 7.87835 -0.000476983 0.00468708 0.0243078
36 2 7.50207 5.23241 8.74346 -0.0060754 -0.0176109 0.0167561
37 1 8.91304 11.6615 10.415 -0.00587541 -0.00383976 -0.00207807
38 2 9.2952 11.9967 9.56137 0.0113507 0.0040752 0.0101617
39 2 9.91658 10.2431 11.5103 0.00352176 0.00571429 -0.00482587
40 1 12.1485 12.1598 5.16297 0.00585655 0.00188979 -0.00331383
41 2 12.7013 4.2092 4.64598 0.0135547 0.0249359 0.00368755
42 2 11.168 12.3245 5.12181 -0.00488553 -1.39877e-05 0.0191976
43 1 3.2203 4.95415 4.13792 0.00631512 -0.00260002 -0.004966
44 2 11.9167 8.19402 3.97485 0.00118333 0.0201169 -0.039323
45 2 5.05948 4.65239 3.00699 0.0217048 0.0135674 -0.00103383
46 1 9.62794 12.5305 7.89621 -0.00174322 -0.00129608 -0.00206171
47 2 8.97111 11.9792 7.35198 0.00716745 0.00999665 -0.0031787
48 2 10.5066 12.0717 7.75838 -0.00577795 -0.00545693 -0.0106346
49 1 10.4142 6.37298 9.81699 0.00640213 0.00383315 0.00253092
50 2 9.54757 6.39355 9.34806 -0.00146346 -0.00798505 0.00743851
51 2 10.2761 5.65978 10.4324 -0.00194622 0.00162699 0.0256296
52 1 9.69502 9.55723 4.88021 -0.00153483 -0.000770197 -0.000347758
53 2 9.23037 8.69418 5.0022 0.0121091 -0.0264242 0.00195738
54 2 9.14808 10.1731 5.27344 -0.000882818 0.0113526 -0.0110497
55 1 4.6378 11.4679 2.96866 -0.00144963 -0.00892621 -0.000250311
56 2 5.42433 10.8513 2.96474 0.0184583 -0.00698694 0.0280104
57 2 4.12214 11.1898 2.18609 -0.00246409 -0.00589906 -0.00326317
58 1 6.62686 10.5393 9.51494 0.00169339 0.00375484 0.00165793
59 2 4.76738 12.1337 7.15544 0.00146028 -0.0188103 -0.00573236
60 2 7.99566 11.2527 10.1744 0.0214235 -0.018452 0.0210037
61 1 7.107 5.25366 5.66584 -0.00220184 -0.00332477 0.00236619
62 2 7.57812 5.38232 6.50614 0.00472184 -0.043998 0.00182846
63 2 5.71269 5.85014 6.04428 -0.0275919 -0.0123778 -0.000899942
64 1 5.25603 11.3347 7.17115 -0.00839342 -0.000207144 -0.00548534
65 2 4.64152 10.7186 6.72227 0.0210957 0.00579796 -0.00734767
66 2 12.3527 12.1976 6.08679 0.0145124 -0.0212291 0.0208909
67 1 12.1784 11.7709 8.14822 -0.00440453 -0.00483231 -0.00698116
68 2 3.00095 12.4271 8.41305 -0.00799738 -0.0037144 -0.00667638
69 2 12.3644 10.9616 8.57323 0.00751024 0.000117858 -0.00527042
70 1 9.79764 4.18039 4.73595 0.00386987 0.0116753 -0.00148974
71 2 9.80082 4.10285 3.76871 0.0038598 0.0164124 0.000556975
72 2 9.26689 13.2551 5.05685 -0.0218504 0.0197744 -0.0111999
73 1 11.7202 8.40899 8.1558 -0.00137818 -0.00170395 7.63947e-05
74 2 11.3487 7.81945 8.86291 0.00205149 0.012374 -0.00395887
75 2 12.6211 8.12352 7.99869 -0.00497411 -0.0115992 -0.00523038
76 1 3.21305 5.53817 10.0625 -0.00122468 0.00456521 -0.00379112
77 2 12.1783 5.90798 9.88048 -0.000245849 0.0158987 0.019432
78 2 3.82625 6.80903 11.2472 0.00335949 0.0211827 -0.0114502
79 1 3.10043 10.2717 10.6136 0.00690778 0.00127843 0.00579675
80 2 3.58181 9.49343 10.7867 0.0257569 0.00677618 0.0347316
81 2 6.26672 10.9624 8.66753 -0.0240248 0.00573793 -0.00675568
82 1 6.04262 5.69458 9.55541 0.00189486 -0.00308357 -0.000315715
83 2 5.16707 5.78446 9.19916 -0.00198458 0.0167317 -0.00358228
84 2 5.88975 5.27672 10.4221 -0.0381641 0.00706319 0.00552779
85 1 10.0907 13.6386 11.8343 -0.00246511 -0.000971769 -0.00302758
86 2 9.49378 13.033 11.3305 0.0031347 0.0168449 -0.000886665
87 2 3.02177 4.77675 10.6758 -0.0058802 -0.0141159 -0.0196572
88 1 7.96855 11.9477 5.87236 -0.00966228 -0.000675792 0.00410014
89 2 7.15985 11.5452 6.2636 -0.00588167 -0.00107056 -0.0130059
90 2 7.61214 12.7925 5.55914 -0.0140788 -0.00457326 0.0230299
91 1 4.66326 5.83879 6.09169 0.00358877 0.00120404 -0.00338303
92 2 4.10758 7.58979 6.57193 0.00944878 0.0178212 0.00522974
93 2 4.37348 4.80862 7.27252 0.00142142 0.00232733 0.0187158
94 1 4.0901 4.05805 7.96937 -0.00429565 -0.00681844 -0.00190788
95 2 3.55465 4.57886 8.66754 0.0214233 0.0266231 -0.000205696
96 2 4.43232 5.28399 5.20242 0.0136678 0.00692322 0.000592934
ITEM: TIMESTEP
3
ITEM: NUMBER OF ATOMS
96
ITEM: BOX BOUNDS pp pp pp
2.9236100000000000e+00 1.2773600000000000e+01
4.0306300000000004e+00 1.3880599999999999e+01
2.1372399999999998e+00 1.1987200000000000e+01
ITEM: ATOMS id type x y z vx vy vz
1 1 5.67426 4.15716 2.53098 0.00328788 0.00180565 0.00388386
2 2 5.46755 13.0077 2.56273 0.0210827 -0.0104334 -0.0170431
3 2 10.993 13.2717 11.6446 -0.0239519 -0.0106427 -0.00439625
4 1 12.6312 12.9024 11.3903 -0.00258465 -0.00137691 -0.00285757
5 2 12.6947 11.99 11.095 0.0049918 -0.0167745 -0.00240355
6 2 3.40612 12.8387 2.32267 -0.00461728 -0.0268254 0.0196678
7 1 11.6426 7.24498 3.84422 0.000653961 -0.000688924 -0.00105333
8 2 10.7975 7.16927 4.33774 -0.00807794 -0.00084483 -0.00578488
9 2 9.69163 8.84162 7.62078 -0.00410118 -0.0258268 -0.00905162
10 1 8.81412 8.76847 7.96333 0.000562892 0.00239016 -0.0022795
11 2 8.64319 7.8056 7.94978 -0.00696688 0.00142915 0.00388963
12 2 7.20033 9.79615 9.15663 -0.00897023 0.00111996 -0.000649945
13 1 6.54403 9.02107 2.23815 -0.00806979 0.0031685 -0.00293677
14 2 6.83809 9.57518 11.3203 -0.00320175 0.00668901 0.0346834
15 2 5.89242 8.37882 11.7598 0.0178766 -0.0156307 -0.0105337
16 1 8.57963 7.21464 2.18814 -0.00584308 0.00198928 0.00973617
17 2 8.91768 6.54556 3.69565 0.00574812 0.00328569 0.0151401
18 2 7.81203 7.84279 2.21347 0.0235849 -0.0356675 -0.00806457
19 1 4.12183 7.57847 11.7607 0.0023503 -0.00138595 -0.0049116
20 2 3.35548 7.65881 2.49492 0.0309514 0.0291998 0.0196526
21 2 12.2701 10.0849 11.2465 0.0121738 0.00580139 0.00176851
22 1 10.4017 9.57069 2.16252 0.000830344 0.00343754 0.00488004
23 2 10.0751 9.63843 3.07024 0.0166128 -0.0306232 0.0267184
24 2 9.2841 7.81828 11.7897 -0.0158054 -0.0222831 -0.0239133
25 1 4.20851 8.52722 6.79403 0.00249658 0.00134715 0.00655147
26 2 3.85637 8.93379 5.98977 0.024541 0.0346406 -0.00069049
27 2 12.4515 5.72523 4.15721 -0.0250403 0.0181835 -0.00148401
28 1 8.9848 6.71391 4.73069 0.00593216 0.0028697 0.00321634
29 2 9.43919 5.82433 5.0498 -0.00285066 -0.00609097 -0.0264378
30 2 7.459 5.90375 4.99865 0.00245543 -0.0038375 0.0104538
31 1 3.16425 9.68817 4.49497 -0.00536609 0.00422449 0.00545934
32 2 12.3677 10.3077 5.03382 -0.00752602 -0.00499259 0.0132223
33 2 3.9231 10.2583 4.31867 0.00583718 -0.00703112 0.00157383
34 1 8.25062 5.37723 8.04705 0.00505112 -0.00252687 -0.00569245
35 2 8.56475 4.4957 7.89056 0.00258137 0.00174375 0.0242797
36 2 7.4997 5.22416 8.75078 -0.00297949 -0.0149988 0.0120287
37 1 8.91007 11.6596 10.414 -0.00595109 -0.0039559 -0.00209425
38 2 9.30074 11.9987 9.56609 0.0105413 0.00380346 0.00858178
39 2 9.91839 10.246 11.5076 0.00371044 0.00573749 -0.00516017
40 1 12.1514 12.1607 5.16128 0.00553661 0.00189756 -0.00335763
41 2 12.7075 4.22166 4.64768 0.0107219 0.0244061 0.00337666
42 2 11.167 12.3246 5.13162 0.00117666 0.00013249 0.0199679
43 1 3.22358 4.95279 4.13543 0.00678788 -0.00275709 -0.0049962
44 2 11.9171 8.2033 3.9552 0.000279674 0.016473 -0.0391359
45 2 5.06893 4.65917 3.00739 0.0158392 0.0133698 0.00281055
46 1 9.62702 12.5298 7.89516 -0.00192591 -0.00158692 -0.00211207
47 2 8.97529 11.9852 7.35065 0.00909427 0.0139686 -0.00234825
48 2 10.5033 12.0696 7.75342 -0.00709893 -0.00317199 -0.00914703
49 1 10.4174 6.37492 9.81821 0.00619918 0.00385309 0.00238767
50 2 9.54766 6.38931 9.35209 0.00200337 -0.0088843 0.0087008
51 2 10.2749 5.66037 10.4456 -0.002765 0.00130337 0.0268423
52 1 9.69431 9.55672 4.87999 -0.00133427 -0.00127002 -0.000507376
53 2 9.23683 8.68164 5.00304 0.0137968 -0.0230874 0.00144182
54 2 9.14626 10.1801 5.26877 -0.00628009 0.0164695 -0.00777323
55 1 4.63718 11.4634 2.96853 -0.00104055 -0.00909967 -0.000229893
56 2 5.43256 10.8482 2.97841 0.0140078 -0.00497496 0.0264006
57 2 4.12136 11.1866 2.18471 -0.000442928 -0.0071025 -0.00221133
58 1 6.62776 10.5411 9.51568 0.00187951 0.00356718 0.00127952
59 2 4.76758 12.1255 7.15303 -0.0011857 -0.0131324 -0.00391862
60 2 8.00708 11.2441 10.185 0.0236504 -0.0159944 0.0208951
61 1 7.10586 5.25191 5.66689 -0.00238716 -0.00369558 0.00183368
62 2 7.5814 5.36093 6.50841 0.00838006 -0.0415035 0.00712732
63 2 5.69804 5.84432 6.04435 -0.0299702 -0.0107456 0.00138733
64 1 5.25186 11.3346 7.16834 -0.00821719 -0.000507041 -0.00570794
65 2 4.65269 10.7215 6.71924 0.0229151 0.00506359 -0.00522954
66 2 12.3597 12.1871 6.09794 0.0132248 -0.0210744 0.0225887
67 1 12.1762 11.7686 8.14464 -0.00450651 -0.00461582 -0.0073353
68 2 2.99718 12.4251 8.40981 -0.00703013 -0.00410577 -0.00631609
69 2 12.3687 10.9607 8.57171 0.00973259 -0.00375006 -0.000864131
70 1 9.79957 4.18618 4.73526 0.00384973 0.0114764 -0.00126918
71 2 9.80285 4.111 3.76822 0.00427256 0.0161518 -0.00249248
72 2 9.25632 13.2659 5.0511 -0.0203758 0.0234593 -0.0117856
73 1 11.7195 8.40811 8.15589 -0.00166431 -0.00181488 0.000255834
74 2 11.3503 7.82619 8.86008 0.00419828 0.014216 -0.00693955
75 2 12.6189 8.11793 7.9959 -0.00356302 -0.0107337 -0.00591783
76 1 3.21243 5.5404 10.0606 -0.00124816 0.00434574 -0.00378373
77 2 12.1779 5.91621 9.88997 -0.00134521 0.0170429 0.01846
78 2 3.82891 6.81942 11.2407 0.00673857 0.0199489 -0.0145861
79 1 3.10387 10.2723 10.6165 0.00690629 0.00135042 0.00575369
80 2 3.59701 9.49503 10.8035 0.0346391 0.000255583 0.0323418
81 2 6.25494 10.9647 8.66531 -0.0227998 0.00301432 -0.00164111
82 1 6.0436 5.69304 9.55531 0.00200816 -0.00308047 -8.9571e-05
83 2 5.1656 5.79251 9.19742 -0.00352468 0.0155436 -0.00340346
84 2 5.87065 5.28034 10.4245 -0.0379648 0.00747083 0.00405856
85 1 10.0894 13.6382 11.8327 -0.00250764 -0.000927172 -0.00309075
86 2 9.49489 13.0414 11.3302 0.000760507 0.0165988 -0.000393445
87 2 3.01917 4.76992 10.6657 -0.0044401 -0.0131416 -0.0209817
88 1 7.96367 11.9474 5.87442 -0.00987141 -0.000795934 0.00411801
89 2 7.15744 11.545 6.25681 -0.00403268 0.000200334 -0.0139005
90 2 7.60523 12.7902 5.57098 -0.0136329 -0.00455436 0.0241732
91 1 4.66504 5.83933 6.08987 0.003486 0.000940356 -0.00387964
92 2 4.11301 7.59772 6.57517 0.0120703 0.0135074 0.00738755
93 2 4.37396 4.80866 7.28242 0.000698614 -0.00237507 0.0205012
94 1 4.08789 4.05475 7.96842 -0.00451165 -0.00634523 -0.00186485
95 2 3.56631 4.59141 8.66681 0.0249806 0.0232169 -0.00241457
96 2 4.43855 5.28878 5.20434 0.0108699 0.0119486 0.00663086
