ITEM: TIMESTEP
0
ITEM: NUMBER OF ATOMS
96
ITEM: BOX BOUNDS pp pp pp
2.9236100000000000e+00 1.2773600000000000e+01
4.0306300000000004e+00 1.3880599999999999e+01
2.1372399999999998e+00 1.1987200000000000e+01
ITEM: ATOMS id type x y z vx vy vz
1 1 5.65542 4.14531 2.50111 -0.00526405 0.000639258 -0.00330514
2 2 5.34136 13.0993 2.68306 -0.00338251 -0.0209167 0.00819434
3 2 11.0405 13.3913 11.7336 -0.00609322 0.0181758 0.0170132
4 1 12.6511 12.9207 11.4074 0.00230088 0.00365433 0.000899153
5 2 12.6372 11.983 10.9987 0.00299859 0.00706834 -0.00436376
6 2 3.43951 13.0657 2.27838 0.0117422 0.0179046 0.00250427
7 1 11.6374 7.25233 3.85362 -0.00102404 0.000826618 0.0018632
8 2 10.7999 7.15525 4.33954 -0.0103949 -0.00871211 -0.00526146
9 2 9.71995 8.92918 7.72676 -0.0034052 1.15261e-05 0.0257038
10 1 8.80459 8.75492 7.97878 -0.00161505 -0.000538325 0.00228108
11 2 8.73776 7.81888 7.90919 0.018625 -0.0128294 -0.00815634
12 2 7.20756 9.83433 9.16312 0.00905085 -0.00638562 -0.00279328
13 1 6.60449 9.00455 2.24612 0.00911453 -0.00282635 -0.000177296
14 2 6.75025 9.41503 11.2567 -0.0119892 -0.0233845 0.000569233
15 2 5.75843 8.51727 11.8652 -0.0163038 0.0208186 0.0333906
16 1 8.60824 7.22655 11.9775 0.00284308 0.00619783 -0.00823309
17 2 8.87954 6.63806 3.70815 -0.0030332 0.0151984 -0.010271
18 2 7.79131 7.85146 2.28104 0.0358203 -0.0372047 0.0035146
19 1 4.08764 7.57768 11.791 -0.00774176 -0.00180175 0.00389804
20 2 3.28268 7.6179 2.4678 0.00616195 0.0100769 0.00606477
21 2 12.1218 10.1035 11.1661 -0.00432979 -0.000695814 -0.0360961
22 1 10.3898 9.55271 11.9757 -0.0036432 -0.00127229 -0.00529947
23 2 10.0211 9.76633 3.04105 0.0105151 0.000859198 0.00172481
24 2 9.38428 7.82165 11.9754 -0.00294971 -0.0215078 0.0300821
25 1 4.18605 8.5046 6.74711 -0.00511108 -0.00556944 -0.00869098
26 2 3.68113 8.88921 5.9398 -0.0153276 0.00021162 0.00346188
27 2 12.4202 5.75098 4.21949 -0.0247525 0.0141686 0.0140275
28 1 8.94823 6.68464 4.70482 -0.00645897 -0.00221591 -0.00345825
29 2 9.35399 5.93217 5.08874 -0.00601825 -0.0146341 -0.0074947
30 2 7.5077 5.93863 4.97921 0.000474144 -0.00652098 0.00256068
31 1 3.19497 9.66623 4.47319 0.00650449 -0.00357773 -0.00268454
32 2 12.418 10.2806 4.83181 -0.0292245 0.00931914 -0.0214732
33 2 3.92067 10.3043 4.19476 0.00618804 -0.00292534 -0.0343218
34 1 8.22842 5.39419 8.07888 0.000168319 0.00267786 0.0014141
35 2 8.56734 4.49445 7.81369 -0.0103424 0.0155691 0.0104424
36 2 7.45535 5.31804 8.66609 -0.0366978 0.000925003 0.00470408
37 1 8.93511 11.6794 10.4161 0.00184057 0.0025303 -0.00249938
38 2 9.28274 11.9934 9.50672 0.0153444 0.00474465 0.000279663
39 2 9.91624 10.2168 11.4282 0.00702055 -0.00911268 -0.0299471
40 1 12.1131 12.1487 5.17272 -0.00441771 -0.00154194 0.00159861
41 2 12.5806 4.17072 4.5504 -0.0200675 0.0171787 -0.0289739
42 2 11.2094 12.3631 5.03213 -0.0134621 0.016672 -0.0136252
43 1 3.20094 4.9466 4.16793 -0.00189912 -0.00442277 0.004886
44 2 11.9622 8.10841 4.19812 0.0209731 -0.00142159 0.0332843
45 2 4.91835 4.60267 3.02318 0.00403507 0.00365594 -0.0142966
46 1 9.62886 12.5326 7.90931 -0.00108008 0.00105783 0.00344283
47 2 9.01607 12.0347 7.37615 0.0099258 0.010793 -0.00857366
48 2 10.5262 12.1395 7.84614 0.00970186 0.00840423 0.0139663
49 1 10.3786 6.35538 9.79559 -0.00455665 -0.00296005 -0.00359658
50 2 9.5687 6.4034 9.30769 -0.00800915 -0.0043329 -0.0120165
51 2 10.23 5.56803 10.3795 -0.0153589 -0.0155298 -0.00220522
52 1 9.7054 9.56126 4.88284 0.000265348 0.00288357 0.00172165
53 2 9.17078 8.77637 4.96881 -0.00950398 -0.00963298 -0.00999512
54 2 9.10546 10.2179 5.36787 0.0138455 0.0012151 -0.000649642
55 1 4.65249 11.5161 2.96965 0.00258714 0.0068757 -9.23749e-05
56 2 5.35807 10.8773 2.81191 0.0158823 -0.00510042 -0.0154709
57 2 4.10944 11.2337 2.20935 -0.0172369 0.0158421 0.00240871
58 1 6.62657 10.5104 9.50628 0.00125034 -0.00533404 -9.20682e-05
59 2 4.81834 12.1867 7.2519 0.024551 -0.0172152 0.0234451
60 2 8.01246 11.4382 10.1659 0.0133668 0.0326027 0.0258384
61 1 7.12008 5.27162 5.64603 0.00317812 0.00471026 -0.00133991
62 2 7.58042 5.63734 6.55232 -0.0141655 0.0182872 -0.00977189
63 2 5.68168 5.90252 6.05547 -0.0246443 -0.00476288 -0.00685496
64 1 5.29739 11.3375 7.19241 0.00578354 0.00238542 0.00223941
65 2 4.66211 10.7348 6.88744 0.0138333 0.00109853 0.0383463
66 2 12.245 12.3322 6.15312 -0.0236597 0.0187423 0.0186926
67 1 12.204 11.8012 8.18251 0.00464888 0.00375702 0.00548975
68 2 3.05666 12.3986 8.45992 0.00886175 -0.0119135 0.00787601
69 2 12.3763 10.9589 8.69561 0.00424761 0.0209605 0.0209854
70 1 9.77756 4.10879 4.7454 -0.00217445 -0.0113275 0.000284754
71 2 9.7875 13.8452 3.73784 -0.00168086 -0.0193215 0.00587383
72 2 9.39847 13.1824 5.12196 0.013681 -0.019639 0.0141768
73 1 11.7203 8.41541 8.16068 -0.000235218 0.00140656 0.00044365
74 2 11.4109 7.80686 8.7918 0.0126988 -0.00845689 -0.00793573
75 2 12.675 8.22842 8.00434 0.00686051 0.0243701 -0.00375805
76 1 3.21874 5.50944 10.0818 0.000667533 -0.00406714 0.00216809
77 2 12.1818 5.821 9.77333 0.00546532 -0.0173342 -0.00905427
78 2 3.99296 6.75905 11.2561 0.0496912 0.0102429 -0.000578999
79 1 3.05115 10.2602 10.5857 -0.00916975 -0.0035721 -0.00340535
80 2 3.54088 9.37819 10.5512 -0.0190404 -0.000809619 -0.0345899
81 2 6.34334 10.9604 8.69109 -0.00651037 0.014096 -0.0124641
82 1 6.03775 5.71637 9.56115 -0.000527689 0.00430268 0.00124197
83 2 5.1081 5.62155 9.25538 -0.00948665 -0.0382408 0.0197107
84 2 6.07045 5.22371 10.3919 0.019674 -0.0113693 -0.00207487
85 1 10.1032 13.6424 11.8489 0.00105045 0.000855046 0.0023833
86 2 9.52331 12.975 11.3932 0.0181044 -0.00417364 0.0175244
87 2 3.06608 4.85187 10.772 0.00225027 0.00402665 0.0165861
88 1 8.01899 11.9486 5.84863 0.00810046 -0.00038734 -0.00415482
89 2 7.2497 11.6207 6.28994 0.00983147 0.0183256 0.00142585
90 2 7.7049 12.7763 5.48892 0.0135388 -0.00432698 -0.002623
91 1 4.64695 5.83159 6.10189 -0.00139927 0.000966203 0.0025223
92 2 4.17047 7.52378 6.6474 0.0259799 0.0135952 0.0210881
93 2 4.31664 4.72518 7.25908 -0.0159415 -0.00752193 0.00627388
94 1 4.11281 4.09772 7.98019 0.00426729 0.00370737 0.00161966
95 2 3.51221 4.44605 8.62526 -0.00931578 0.00132858 0.00141409
96 2 4.32687 5.36634 5.33147 -0.0208818 0.0108855 0.0077976
ITEM: TIMESTEP
1
ITEM: NUMBER OF ATOMS
96
ITEM: BOX BOUNDS pp pp pp
2.9236100000000000e+00 1.2773600000000000e+01
4.0306300000000004e+00 1.3880599999999999e+01
2.1372399999999998e+00 1.1987200000000000e+01
ITEM: ATOMS id type x y z vx vy vz
1 1 5.65263 4.14572 2.49955 -0.00587606 0.000937599 -0.00295509
2 2 5.34081 13.0875 2.68645 0.00128127 -0.0254785 0.00534229
3 2 11.038 13.3999 11.742 -0.00342885 0.016285 0.0163803
4 1 12.6522 12.9225 11.4078 0.00217904 0.00364048 0.000618668
5 2 12.6396 11.988 10.9978 0.00643222 0.0127121 0.000649415
6 2 3.44528 13.0733 2.27927 0.0111506 0.0126133 0.000800489
7 1 11.6369 7.25274 3.85459 -0.00102763 0.000843867 0.0020404
8 2 10.7946 7.15078 4.33654 -0.0105588 -0.00900835 -0.00680831
9 2 9.7181 8.92887 7.7399 -0.00370023 -0.0010427 0.0267457
10 1 8.80378 8.7547 7.97992 -0.00164759 -0.000389925 0.00226329
11 2 8.74704 7.81188 7.90512 0.0184053 -0.014633 -0.00803094
12 2 7.21256 9.83054 9.16152 0.0106414 -0.00836613 -0.00352393
13 1 6.60895 9.0031 2.24603 0.00870416 -0.00298796 -0.0001622
14 2 6.74503 9.40428 11.2562 -0.0087836 -0.0194779 -0.0029196
15 2 5.75086 8.52757 11.8829 -0.0137973 0.0204078 0.0374998
16 1 8.60963 7.22969 11.9734 0.00277185 0.00623003 -0.00806176
17 2 8.8782 6.64519 3.70202 -0.00230151 0.013218 -0.0137571
18 2 7.80979 7.83234 2.28252 0.0368023 -0.0382456 0.00267177
19 1 4.08377 7.57678 11.7929 -0.00769669 -0.00176786 0.00375787
20 2 3.28579 7.62285 2.47103 0.00586178 0.00928929 0.00681487
21 2 12.1201 10.1024 11.1476 -0.00308544 -0.00374957 -0.0372607
22 1 10.3879 9.55216 11.9731 -0.00398242 -0.000941738 -0.00512199
23 2 10.0273 9.76599 3.04117 0.0139801 -0.00201564 -0.00145849
24 2 9.38277 7.81097 2.14025 -0.0022366 -0.0204911 0.0290652
25 1 4.18343 8.50182 6.74273 -0.00534882 -0.00548741 -0.0088011
26 2 3.67432 8.88871 5.94236 -0.0120318 -0.00234329 0.00650058
27 2 12.4084 5.75714 4.22634 -0.0219074 0.0100851 0.0131809
28 1 8.94496 6.68373 4.70313 -0.00656972 -0.00143229 -0.00330732
29 2 9.35187 5.92259 5.08471 -0.00271821 -0.0232054 -0.00895004
30 2 7.50714 5.93474 4.98026 -0.0026395 -0.00876501 0.00119593
31 1 3.19833 9.66445 4.47185 0.00688015 -0.00351117 -0.00266622
32 2 12.4019 10.286 4.82162 -0.0339971 0.0118563 -0.0197932
33 2 3.92348 10.3021 4.1774 0.00464198 -0.00614594 -0.0348375
34 1 8.22861 5.39555 8.07945 0.000507691 0.00279052 0.000939064
35 2 8.56162 4.50272 7.81981 -0.0123701 0.0170494 0.0138269
36 2 7.43636 5.31789 8.66873 -0.0383777 -0.00134215 0.00518587
37 1 8.93604 11.6807 10.4148 0.00191865 0.00256947 -0.00286462
38 2 9.2911 11.9959 9.50739 0.0177849 0.00524305 0.00228665
39 2 9.92014 10.2117 11.4132 0.00847854 -0.0111733 -0.0297502
40 1 12.1109 12.148 5.17363 -0.00424189 -0.00140427 0.00208455
41 2 12.5706 4.17973 4.53572 -0.0201898 0.0181241 -0.0294081
42 2 11.202 12.3718 5.0253 -0.0153801 0.0180175 -0.0136368
43 1 3.19995 4.94439 4.17035 -0.00210859 -0.00434394 0.00477715
44 2 11.973 8.10762 4.21441 0.0218386 -0.00228477 0.0316867
45 2 4.92201 4.60522 3.01503 0.010246 0.00655713 -0.018056
46 1 9.62831 12.5332 7.91113 -0.00110574 0.00141443 0.00385096
47 2 9.02055 12.0394 7.37077 0.00800813 0.00788784 -0.0129935
48 2 10.5314 12.1434 7.85295 0.0107223 0.00726136 0.0132547
49 1 10.3764 6.35383 9.79384 -0.00437356 -0.00326558 -0.00342279
50 2 9.56418 6.40101 9.30145 -0.0097353 -0.00520705 -0.0127713
51 2 10.2222 5.56128 10.3779 -0.015509 -0.0111166 -0.00425639
52 1 9.70542 9.5628 4.88377 -0.000177819 0.00324029 0.00199723
53 2 9.16636 8.77109 4.96358 -0.00790961 -0.0109126 -0.0108823
54 2 9.11381 10.2176 5.3664 0.0191705 -0.00222967 -0.00500769
55 1 4.6538 11.5194 2.96957 0.00266802 0.00643985 -0.000241326
56 2 5.36669 10.8748 2.8047 0.0178768 -0.00423947 -0.0133878
57 2 4.10038 11.2422 2.2108 -0.0186954 0.0180021 0.00363173
58 1 6.62722 10.5077 9.50625 0.00134419 -0.00527915 -8.11252e-05
59 2 4.8307 12.1777 7.2638 0.0242572 -0.0179903 0.02417
60 2 8.01837 11.454 10.1797 0.00963523 0.0306328 0.0288532
61 1 7.12173 5.27408 5.64553 0.00339014 0.00511032 -0.000643665
62 2 7.5723 5.64471 6.54618 -0.0180976 0.0112386 -0.0143956
63 2 5.66962 5.89946 6.05148 -0.0231039 -0.00738439 -0.00907856
64 1 5.30035 11.3388 7.19353 0.00614341 0.00275314 0.00224572
65 2 4.66816 10.7343 6.90636 0.0097822 -0.00363725 0.0371272
66 2 12.2328 12.341 6.16097 -0.0250397 0.0164154 0.01214
67 1 12.2063 11.803 8.18527 0.00474107 0.0033825 0.00555365
68 2 3.06122 12.3928 8.46383 0.00953383 -0.0109842 0.00773567
69 2 12.3782 10.9705 8.70574 0.00325298 0.0248785 0.0196131
70 1 9.77654 4.10317 4.74546 -0.00192973 -0.0111721 -4.39301e-06
71 2 9.78662 13.8355 3.74158 -0.00185096 -0.0195733 0.00887896
72 2 9.40485 13.172 5.1292 0.0121203 -0.0216433 0.0145966
73 1 11.7202 8.41617 8.16083 -9.20135e-05 0.00165269 0.000161977
74 2 11.4169 7.80157 8.78887 0.0113615 -0.012726 -0.00377488
75 2 12.6781 8.2409 8.00226 0.0053683 0.0254914 -0.00453418
76 1 3.21907 5.50745 10.0828 0.000668315 -0.00390678 0.00197747
77 2 12.1847 5.81217 9.76937 0.00585595 -0.0178954 -0.00678737
78 2 4.0178 6.7646 11.2559 0.0491103 0.0115503 -9.92029e-05
79 1 3.04658 10.2584 10.584 -0.00905238 -0.00377757 -0.00343065
80 2 3.53017 9.37913 10.5345 -0.0236353 0.00420682 -0.0323225
81 2 6.3395 10.9676 8.68478 -0.00852223 0.0142321 -0.0120162
82 1 6.03745 5.71853 9.56179 -0.000698904 0.00433826 0.00133154
83 2 5.10405 5.6021 9.26569 -0.0065179 -0.0394207 0.0213353
84 2 6.07996 5.21804 10.3909 0.0185215 -0.0111785 -0.00218377
85 1 10.1036 13.6429 11.8501 0.000727193 0.00115254 0.00254879
86 2 9.53256 12.9727 11.4019 0.0185734 -0.00533966 0.0169785
87 2 3.06682 4.85344 10.7803 0.000718168 0.00237075 0.0165529
88 1 8.02308 11.9484 5.84653 0.00825557 -0.000522999 -0.00425148
89 2 7.2537 11.6297 6.29092 0.00607011 0.0175345 0.00259226
90 2 7.71143 12.7746 5.48772 0.0124099 -0.00225259 -0.00226651
91 1 4.64629 5.83223 6.10328 -0.00129199 0.00159215 0.00303126
92 2 4.18369 7.53126 6.65761 0.0267201 0.015435 0.0194078
93 2 4.30856 4.72238 7.26192 -0.0162894 -0.00347115 0.0047718
94 1 4.11498 4.09938 7.98102 0.0044099 0.00293809 0.00174707
95 2 3.50699 4.44801 8.62674 -0.0113435 0.00631448 0.00429525
96 2 4.31603 5.37077 5.33341 -0.0225085 0.00680086 -4.38885e-05
ITEM: TIMESTEP
2
ITEM: NUMBER OF ATOMS
96
ITEM: BOX BOUNDS pp pp pp
2.9236100000000000e+00 1.2773600000000000e+01
4.0306300000000004e+00 1.3880599999999999e+01
2.1372399999999998e+00 1.1987200000000000e+01
ITEM: ATOMS id type x y z vx vy vz
1 1 5.64954 4.14625 2.49815 -0.00644373 0.00110955 -0.00264025
2 2 5.34264 13.0738 2.6884 0.0060631 -0.0281599 0.0024687
3 2 11.0371 13.4076 11.75 1.50402e-06 0.0142307 0.0156589
4 1 12.6533 12.9243 11.408 0.00207739 0.00365758 0.000376633
5 2 12.6436 11.9957 10.9993 0.00984795 0.0180189 0.0055425
6 2 3.45066 13.0783 2.27918 0.0102329 0.00724665 -0.00133882
7 1 11.6364 7.25317 3.85566 -0.00101205 0.000891355 0.0022526
8 2 10.7893 7.14624 4.33273 -0.0102709 -0.0089578 -0.00845469
9 2 9.71625 8.92814 7.75351 -0.00339173 -0.00169879 0.0276082
10 1 8.80294 8.75453 7.98104 -0.00170795 -0.000335255 0.00224682
11 2 8.75617 7.80425 7.90116 0.0179719 -0.0153263 -0.00773728
12 2 7.2182 9.82596 9.1596 0.0116 -0.0094913 -0.00409926
13 1 6.61319 9.00156 2.24596 0.00824193 -0.00313803 -0.000113814
14 2 6.74147 9.39555 11.2538 -0.00548631 -0.0154105 -0.00692296
15 2 5.74463 8.53768 11.9027 -0.0110036 0.0200538 0.0415352
16 1 8.61101 7.23278 11.9694 0.00279008 0.00602582 -0.00792763
17 2 8.87724 6.65128 3.69439 -0.00152632 0.0110433 -0.0161188
18 2 7.82811 7.81321 2.28371 0.0351001 -0.0372099 0.00238068
19 1 4.07994 7.57591 11.7948 -0.00753911 -0.0016356 0.0036261
20 2 3.28854 7.62719 2.47461 0.00476031 0.00768754 0.00748074
21 2 12.1187 10.0998 11.1288 -0.00335253 -0.00716425 -0.0372326
22 1 10.3858 9.55177 11.9706 -0.00428453 -0.000636866 -0.00496969
23 2 10.0351 9.76431 3.03959 0.0169969 -0.00444089 -0.00491996
24 2 9.38204 7.80116 2.15451 7.83007e-05 -0.0181382 0.0279353
25 1 4.1807 8.49911 6.73831 -0.00554394 -0.00527001 -0.00881845
26 2 3.6691 8.88687 5.9463 -0.0090544 -0.00506563 0.00882281
27 2 12.3983 5.76107 4.23267 -0.0179933 0.00541561 0.0119434
28 1 8.94166 6.68321 4.70151 -0.00661139 -0.000713272 -0.00317894
29 2 9.35127 5.90896 5.07979 -0.000121333 -0.0305273 -0.0111538
30 2 7.50506 5.92986 4.98041 -0.00549819 -0.0103592 -0.00105128
31 1 3.20185 9.66272 4.47052 0.00715052 -0.00334441 -0.00261826
32 2 12.384 10.2925 4.81202 -0.0364278 0.0131865 -0.0191484
33 2 3.92531 10.2982 4.15992 0.00229309 -0.00946046 -0.0347755
34 1 8.22893 5.39698 8.07982 0.000698687 0.00294966 0.000587254
35 2 8.55497 4.5115 7.82752 -0.0139632 0.0175034 0.0167773
36 2 7.41697 5.3167 8.67128 -0.038272 -0.0032419 0.00437967
37 1 8.93703 11.682 10.4132 0.00210617 0.00262398 -0.00316423
38 2 9.30052 11.9986 9.50901 0.019534 0.00552609 0.0040612
39 2 9.92472 10.2056 11.3984 0.00970173 -0.013174 -0.0287488
40 1 12.1089 12.1473 5.1748 -0.00417327 -0.00124905 0.00261018
41 2 12.5604 4.18884 4.52099 -0.0206929 0.0175706 -0.0291558
42 2 11.194 12.3811 5.01849 -0.0157856 0.0189723 -0.0135554
43 1 3.19883 4.94226 4.17271 -0.00237181 -0.00410909 0.00463458
44 2 11.984 8.10613 4.22981 0.0220528 -0.00419175 0.0297501
45 2 4.9286 4.60923 3.00512 0.0155448 0.00943234 -0.0211878
46 1 9.62775 12.534 7.91316 -0.00109461 0.00175984 0.00426188
47 2 9.02408 12.0426 7.36316 0.00626807 0.00495499 -0.0173329
48 2 10.5369 12.1468 7.85939 0.0110574 0.00631958 0.0124802
49 1 10.3742 6.35211 9.79217 -0.00424738 -0.00360748 -0.0032589
50 2 9.55896 6.39819 9.29492 -0.0107629 -0.0060415 -0.0131758
51 2 10.2145 5.55691 10.3752 -0.0153917 -0.00619255 -0.00658331
52 1 9.70522 9.5645 4.88484 -0.00059107 0.00348567 0.00222338
53 2 9.16287 8.76546 4.95793 -0.00582334 -0.0110463 -0.0116977
54 2 9.12463 10.2157 5.36286 0.0235594 -0.00509321 -0.0087341
55 1 4.65516 11.5225 2.96941 0.00279506 0.0059417 -0.000416572
56 2 5.37595 10.8731 2.79852 0.018535 -0.00241664 -0.0113144
57 2 4.09074 11.2517 2.21298 -0.0195548 0.0201203 0.00522156
58 1 6.62791 10.5051 9.5062 0.00142813 -0.00520238 -0.000179115
59 2 4.8426 12.1687 7.27607 0.022674 -0.0168696 0.0249428
60 2 8.0221 11.4688 10.1948 0.00480975 0.0284416 0.030941
61 1 7.12347 5.27673 5.64539 0.00355129 0.00543231 3.80928e-05
62 2 7.56232 5.64858 6.53792 -0.021463 0.00446336 -0.0180664
63 2 5.65858 5.89514 6.04639 -0.0206727 -0.00981507 -0.0112726
64 1 5.30353 11.3403 7.19466 0.00664341 0.00303663 0.00227421
65 2 4.67189 10.7312 6.92457 0.00485801 -0.00898167 0.0356287
66 2 12.22 12.3486 6.16526 -0.0262277 0.0137826 0.00473962
67 1 12.2087 11.8046 8.18806 0.00482412 0.0030302 0.00560588
68 2 3.06619 12.3876 8.46766 0.0104982 -0.00931747 0.00750949
69 2 12.3796 10.9838 8.71522 0.00203662 0.0277269 0.0184609
70 1 9.77563 4.09762 4.7454 -0.00169857 -0.0110413 -0.000237603
71 2 9.78565 13.8256 3.74672 -0.00207258 -0.0198611 0.0113828
72 2 9.41059 13.1608 5.13656 0.0110056 -0.0230299 0.0146682
73 1 11.7202 8.41706 8.16084 5.04317e-05 0.00189092 -0.000107287
74 2 11.4223 7.79413 8.78803 0.0101924 -0.01685 0.000177579
75 2 12.6804 8.25391 7.99981 0.00370187 0.0264959 -0.00525446
76 1 3.21941 5.50553 10.0838 0.000688371 -0.00377727 0.00180919
77 2 12.1877 5.8031 9.76654 0.00583281 -0.0182831 -0.00455729
78 2 4.04207 6.7706 11.256 0.047515 0.0120382 0.000364865
79 1 3.0421 10.2564 10.5823 -0.00885394 -0.0039 -0.00353069
80 2 3.51724 9.3824 10.5189 -0.0277838 0.00835046 -0.0299909
81 2 6.33482 10.9746 8.67907 -0.0098567 0.0132187 -0.010114
82 1 6.03705 5.72071 9.56248 -0.000897275 0.00433855 0.00145271
83 2 5.10158 5.58213 9.27672 -0.00327267 -0.0402822 0.022546
84 2 6.08897 5.21253 10.3897 0.0176923 -0.010735 -0.00247781
85 1 10.1039 13.6436 11.8514 0.000396271 0.00150201 0.00274379
86 2 9.54188 12.9697 11.4102 0.0184389 -0.00712062 0.015995
87 2 3.0668 4.85424 10.7886 -0.000757389 0.00102828 0.0161575
88 1 8.02725 11.9481 5.84438 0.00841282 -0.000670319 -0.0043436
89 2 7.25577 11.6382 6.29253 0.00226563 0.0165461 0.00386349
90 2 7.71731 12.774 5.48665 0.0111202 0.000135802 -0.00208882
91 1 4.64566 5.83318 6.10492 -0.00125543 0.00220256 0.00352763
92 2 4.19719 7.53922 6.66681 0.0271124 0.0154469 0.0171069
93 2 4.30035 4.72171 7.26385 -0.0165058 0.000850614 0.00277449
94 1 4.11722 4.10066 7.98194 0.00450846 0.00218619 0.00195343
95 2 3.50087 4.45236 8.62956 -0.0127688 0.0107967 0.00660121
96 2 4.30436 5.37314 5.33143 -0.0240429 0.00284191 -0.00757285
ITEM: TIMESTEP
3
ITEM: NUMBER OF ATOMS
96
ITEM: BOX BOUNDS pp pp pp
2.9236100000000000e+00 1.2773600000000000e+01
4.0306300000000004e+00 1.3880599999999999e+01
2.1372399999999998e+00 1.1987200000000000e+01
ITEM: ATOMS id type x y z vx vy vz
1 1 5.64619 4.14683 2.49691 -0.00693553 0.00115099 -0.00238002
2 2 5.34687 13.0593 2.68892 0.0107536 -0.0288806 -0.000324309
3 2 11.038 13.4142 11.7576 0.00379724 0.0121339 0.0149123
4 1 12.6543 12.9262 11.4082 0.00199072 0.00372891 0.000175935
5 2 12.6494 12.006 11.0033 0.0131719 0.0224871 0.0100453
6 2 3.45552 13.0806 2.27794 0.00915304 0.00194153 -0.00368274
7 1 11.6359 7.25363 3.85684 -0.000975609 0.000962264 0.00249225
8 2 10.7843 7.14182 4.32808 -0.00961141 -0.00855771 -0.0101244
9 2 9.71471 8.92717 7.7675 -0.00249118 -0.00195617 0.0283107
10 1 8.80207 8.75436 7.98216 -0.00179397 -0.000378223 0.00223026
11 2 8.76501 7.79656 7.89739 0.0173028 -0.0148492 -0.00727042
12 2 7.22416 9.82105 9.15742 0.0118684 -0.00970288 -0.00451311
13 1 6.61719 8.99996 2.24592 0.00775107 -0.00326098 -5.09168e-05
14 2 6.73955 9.38886 11.2493 -0.00231989 -0.0114847 -0.0109879
15 2 5.73986 8.54762 11.9245 -0.00804014 0.0197453 0.0453275
16 1 8.61242 7.23571 11.9655 0.00291411 0.00560088 -0.00783689
17 2 8.87667 6.65624 3.6859 -0.000728923 0.00874172 -0.0171329
18 2 7.84489 7.79513 2.2849 0.030675 -0.0340886 0.00270317
19 1 4.07623 7.57514 11.7965 -0.00728432 -0.00141215 0.0035054
20 2 3.29055 7.63054 2.47851 0.00298618 0.0053621 0.00806778
21 2 12.1168 10.0953 11.1104 -0.00516956 -0.0108219 -0.0360699
22 1 10.3836 9.55152 11.9681 -0.00453474 -0.000375851 -0.0048569
23 2 10.0443 9.76155 3.03625 0.0194236 -0.00631019 -0.00833534
24 2 9.38285 7.79284 2.16818 0.00372612 -0.0146612 0.0267647
25 1 4.17789 8.49655 6.73391 -0.0056912 -0.00492738 -0.00873451
26 2 3.66526 8.88364 5.95119 -0.00656881 -0.00777005 0.0102122
27 2 12.3904 5.76256 4.23829 -0.0132987 0.00054275 0.0103636
28 1 8.93835 6.68302 4.69995 -0.00657473 -9.75379e-05 -0.00308021
29 2 9.35175 5.89206 5.07356 0.00151559 -0.0361175 -0.0142428
30 2 7.50164 5.92438 4.97921 -0.00789994 -0.011175 -0.00412226
31 1 3.20548 9.6611 4.46923 0.00729634 -0.0030811 -0.00254016
32 2 12.3655 10.2992 4.80247 -0.0363515 0.013205 -0.0195219
33 2 3.92578 10.2926 4.14262 -0.000731712 -0.0127398 -0.0341719
34 1 8.22931 5.3985 8.08004 0.000738188 0.00315861 0.000365201
35 2 8.54765 4.52023 7.83658 -0.0150045 0.0167829 0.0192143
36 2 7.39809 5.31465 8.67311 -0.0364384 -0.00469562 0.00238106
37 1 8.93814 11.6833 10.4116 0.00238323 0.00268535 -0.00339456
38 2 9.31063 12.0014 9.51145 0.0204685 0.00559231 0.00553994
39 2 9.92984 10.1986 11.3844 0.0105814 -0.0149474 -0.0270671
40 1 12.1068 12.1467 5.17624 -0.00421656 -0.00108065 0.00313897
41 2 12.5499 4.1973 4.50656 -0.0215919 0.0154967 -0.0282468
42 2 11.1862 12.3908 5.01175 -0.0146963 0.0195001 -0.0133762
43 1 3.19757 4.94028 4.17498 -0.00266918 -0.0037441 0.00445613
44 2 11.995 8.10343 4.24416 0.0216297 -0.00696682 0.0275145
45 2 4.93756 4.61466 2.99384 0.0196215 0.0122295 -0.0234851
46 1 9.62721 12.535 7.91539 -0.00105818 0.00207299 0.00465695
47 2 9.02682 12.0443 7.35343 0.00497633 0.00226661 -0.0213249
48 2 10.5424 12.1497 7.86543 0.0106112 0.00563922 0.0116569
49 1 10.3721 6.35022 9.79058 -0.00417915 -0.00396492 -0.00312213
50 2 9.55342 6.39497 9.28828 -0.0110482 -0.00681947 -0.0132155
51 2 10.2069 5.55509 10.3714 -0.0150502 -0.00109158 -0.00893115
52 1 9.70483 9.56629 4.886 -0.000946087 0.00360468 0.00238237
53 2 9.16054 8.76004 4.95189 -0.0033595 -0.0101509 -0.0123924
54 2 9.13737 10.2125 5.35766 0.0266692 -0.00703617 -0.0115486
55 1 4.65659 11.5254 2.96915 0.00296408 0.00540271 -0.00060588
56 2 5.38522 10.8724 2.79338 0.0180522 0.000156903 -0.00929591
57 2 4.08082 11.2623 2.21602 -0.0199005 0.0221017 0.00699902
58 1 6.62865 10.5025 9.50607 0.001511 -0.00511168 -0.00037186
59 2 4.85338 12.1608 7.28874 0.0198883 -0.0139984 0.0258137
60 2 8.02318 11.4825 10.2106 -0.000702685 0.0261803 0.0320761
61 1 7.12528 5.27952 5.64557 0.00364299 0.00565135 0.000672001
62 2 7.55084 5.64917 6.52812 -0.0240148 -0.00169137 -0.0204398
63 2 5.64895 5.88964 6.04021 -0.0175694 -0.0120558 -0.0134183
64 1 5.307 11.3418 7.1958 0.00724302 0.00321244 0.00230477
65 2 4.67301 10.7253 6.94199 -0.00037465 -0.0144066 0.0341304
66 2 12.2066 12.3548 6.16571 -0.0271302 0.0109516 -0.00293812
67 1 12.2112 11.806 8.19088 0.00489918 0.00271852 0.00563866
68 2 3.07172 12.3835 8.47134 0.0116766 -0.00699034 0.00715264
69 2 12.3802 10.9982 8.7242 0.000642397 0.029302 0.0176858
70 1 9.77484 4.09213 4.74523 -0.00148471 -0.0109397 -0.000398737
71 2 9.78455 13.8156 3.75296 -0.00233236 -0.0201902 0.0131543
72 2 9.41586 13.149 5.14387 0.0102399 -0.0237163 0.0143964
73 1 11.7203 8.41807 8.16072 0.000175141 0.00209889 -0.000339706
74 2 11.4271 7.78472 8.78905 0.00939113 -0.0204435 0.00352951
75 2 12.6818 8.26739 7.99701 0.00191955 0.0273443 -0.00590542
76 1 3.21976 5.50367 10.0846 0.000726932 -0.00368476 0.00166817
77 2 12.1905 5.79389 9.76481 0.00536026 -0.0184605 -0.00242304
78 2 4.06531 6.77664 11.2563 0.0450497 0.011745 0.000777927
79 1 3.03773 10.2545 10.5805 -0.00858566 -0.00392724 -0.00369503
80 2 3.50239 9.38748 10.5045 -0.0312272 0.0112957 -0.0277205
81 2 6.32964 10.9808 8.67467 -0.0105543 0.0111358 -0.00696072
82 1 6.03655 5.72287 9.56324 -0.00110962 0.00430263 0.00160646
83 2 5.10078 5.56181 9.28823 6.06951e-05 -0.0408152 0.0232469
84 2 6.09765 5.20731 10.3884 0.0172149 -0.0100385 -0.00290771
85 1 10.104 13.6444 11.8529 7.29221e-05 0.00188763 0.00295825
86 2 9.551 12.9656 11.4179 0.0178146 -0.00940825 0.014659
87 2 3.06606 4.85446 10.7965 -0.00211855 6.27608e-05 0.015344
88 1 8.03149 11.9477 5.84218 0.00854723 -0.000824077 -0.00442259
89 2 7.25597 11.6462 6.29478 -0.00126448 0.0154755 0.00506252
90 2 7.72255 12.7747 5.48563 0.0098909 0.00267411 -0.00203254
91 1 4.64503 5.83443 6.10681 -0.00129471 0.00277748 0.00397797
92 2 4.21081 7.5467 6.67472 0.0272572 0.0135872 0.0142977
93 2 4.29206 4.72323 7.26469 -0.0166273 0.00521254 0.000498659
94 1 4.11949 4.10157 7.98298 0.0045499 0.00147676 0.00223712
95 2 3.49422 4.45881 8.63335 -0.0133322 0.0146179 0.008131
96 2 4.29198 5.37361 5.32584 -0.0252398 -0.000668846 -0.0142021
