ITEM: TIMESTEP
0
ITEM: NUMBER OF ATOMS
96
ITEM: BOX BOUNDS pp pp pp
2.9236100000000000e+00 1.2773600000000000e+01
4.0306300000000004e+00 1.3880599999999999e+01
2.1372399999999998e+00 1.1987200000000000e+01
ITEM: ATOMS id type x y z vx vy vz
1 1 5.6579 4.14508 2.50285 -0.00463938 0.000228847 -0.00367052
2 2 5.34419 13.1084 2.67826 -0.00775285 -0.0147061 0.0109387
3 2 11.0441 13.3818 11.7249 -0.00767181 0.0197895 0.0174938
4 1 12.6499 12.9189 11.4069 0.00244522 0.00367552 0.00121345
5 2 12.6366 11.9809 11.0021 -0.000365804 0.00157799 -0.00922673
6 2 3.43354 13.0554 2.27677 0.0118707 0.0229873 0.00356658
7 1 11.6379 7.25192 3.85273 -0.00100421 0.000844161 0.00172497
8 2 10.805 7.15949 4.3418 -0.00972616 -0.00808836 -0.00387794
9 2 9.7215 8.92886 7.71419 -0.00254991 0.00144417 0.0244786
10 1 8.80539 8.75524 7.97763 -0.00160869 -0.000768423 0.00230113
11 2 8.72842 7.82471 7.91328 0.0186509 -0.0100861 -0.00812859
12 2 7.20351 9.83693 9.16432 0.00695472 -0.00369211 -0.00193932
13 1 6.59984 9.00592 2.24621 0.00945342 -0.00266857 -0.000142797
14 2 6.75702 9.42766 11.2556 -0.0148883 -0.026841 0.00314679
15 2 5.76717 8.50675 11.8495 -0.0184293 0.0212845 0.0293615
16 1 8.60679 7.22349 11.9817 0.00298556 0.00593199 -0.00843144
17 2 8.88123 6.62999 3.71229 -0.00371185 0.0169224 -0.00601074
18 2 7.77397 7.86955 2.27901 0.0324035 -0.0342426 0.00480174
19 1 4.09151 7.57858 11.789 -0.00766501 -0.00173577 0.00404348
20 2 3.27963 7.61277 2.46497 0.00558828 0.00998955 0.00520881
21 2 12.1245 10.1031 11.1837 -0.00691156 0.00190024 -0.0337817
22 1 10.3915 9.55343 11.9784 -0.00328373 -0.00160991 -0.00548635
23 2 10.0168 9.76513 3.03945 0.00677016 0.00405644 0.0043355
24 2 9.38572 7.83248 11.9601 -0.00199095 -0.0210929 0.0309008
25 1 4.18854 8.50739 6.75142 -0.00483865 -0.00551607 -0.0085014
26 2 3.68965 8.8885 5.9389 -0.0187411 0.00239193 -2.40582e-05
27 2 12.4331 5.74297 4.21232 -0.026285 0.0172907 0.0144611
28 1 8.95142 6.68595 4.70659 -0.00629398 -0.00301733 -0.00362416
29 2 9.35789 5.93722 5.0922 -0.00967825 -0.00542371 -0.00653768
30 2 7.50667 5.94126 4.9777 0.0036099 -0.00381031 0.00306911
31 1 3.19182 9.66802 4.47453 0.00605314 -0.00355258 -0.00267891
32 2 12.4311 10.2767 4.84309 -0.0224973 0.00581965 -0.0240799
33 2 3.91729 10.305 4.21172 0.00687222 8.35686e-05 -0.0332261
34 1 8.22844 5.39287 8.07804 -0.000306975 0.00260604 0.00199666
35 2 8.57196 4.48715 7.80936 -0.00801357 0.0132585 0.0067235
36 2 7.47306 5.31697 8.66402 -0.0333125 0.00347292 0.00294013
37 1 8.93419 11.6781 10.4173 0.00188189 0.0025134 -0.00207527
38 2 9.27576 11.9912 9.50711 0.0123691 0.00404924 -0.00188546
39 2 9.91312 10.2208 11.4431 0.00544409 -0.00715723 -0.0292691
40 1 12.1154 12.1495 5.17203 -0.00468614 -0.00165849 0.00118795
41 2 12.5906 4.16255 4.56469 -0.0202618 0.0148668 -0.0278708
42 2 11.2155 12.3551 5.03893 -0.01016 0.0150002 -0.0135486
43 1 3.20185 4.94881 4.16546 -0.00176391 -0.00432955 0.00496423
44 2 11.952 8.10904 4.18112 0.0194798 -0.00170233 0.0345351
45 2 4.91798 4.60157 3.02932 -0.00272942 0.000792241 -0.0101466
46 1 9.62939 12.5322 7.90769 -0.00100872 0.000713763 0.00305567
47 2 9.01062 12.0286 7.37934 0.0117225 0.0133843 -0.00434069
48 2 10.5217 12.135 7.83899 0.0081651 0.00965967 0.0145986
49 1 10.3809 6.35679 9.79743 -0.00479081 -0.0027102 -0.00376156
50 2 9.57219 6.40534 9.31347 -0.00569011 -0.00342929 -0.0109616
51 2 10.2376 5.57681 10.3801 -0.0149098 -0.0191279 -0.000668178
52 1 9.70515 9.55992 4.88205 0.000710485 0.00243691 0.00141572
53 2 9.17586 8.78072 4.97358 -0.0105403 -0.00718059 -0.00908671
54 2 9.09996 10.2164 5.36704 0.00796934 0.00488907 0.00403742
55 1 4.65121 11.5126 2.96966 0.00255283 0.00723348 2.11657e-05
56 2 5.35081 10.8799 2.82017 0.0123861 -0.00485628 -0.0175696
57 2 4.11761 11.2263 2.20839 -0.0150607 0.0137079 0.00173644
58 1 6.62597 10.5131 9.50634 0.00113689 -0.00535965 -0.000215362
59 2 4.80615 12.1949 7.24036 0.023583 -0.0146158 0.0227028
60 2 8.005 11.4214 10.1538 0.0157257 0.034211 0.0219785
61 1 7.11855 5.26937 5.64687 0.00293616 0.00426162 -0.00201756
62 2 7.58647 5.62642 6.55595 -0.00994053 0.0252535 -0.0045876
63 2 5.69426 5.90422 6.05834 -0.02512 -0.00197391 -0.00462858
64 1 5.29457 11.3364 7.19129 0.0055885 0.00196248 0.00227457
65 2 4.65432 10.7332 6.86801 0.0165742 0.00483291 0.0390265
66 2 12.2565 12.3223 6.14228 -0.0221927 0.0206765 0.0238748
67 1 12.2017 11.7992 8.17978 0.00454878 0.00413439 0.00542346
68 2 3.05236 12.4047 8.45595 0.00851567 -0.0120881 0.00796703
69 2 12.374 10.9495 8.68476 0.00498316 0.0162519 0.0224062
70 1 9.77871 4.1145 4.74518 -0.00242662 -0.0114984 0.00060918
71 2 9.78831 13.8548 3.7357 -0.00157093 -0.0190959 0.00261171
72 2 9.39117 13.1916 5.11502 0.0155987 -0.0172129 0.0134796
73 1 11.7205 8.41477 8.16039 -0.000360766 0.00117561 0.00071142
74 2 11.4042 7.81003 8.79681 0.0139771 -0.00443895 -0.011881
75 2 12.6712 8.21653 8.00602 0.00812725 0.0231749 -0.00294402
76 1 3.2184 5.51152 10.0807 0.000685329 -0.00424965 0.00237461
77 2 12.1792 5.82951 9.77842 0.00472222 -0.0166452 -0.0112933
78 2 3.9681 6.75436 11.2565 0.0491512 0.0081404 -0.00101995
79 1 3.05575 10.2619 10.5874 -0.00920264 -0.00329955 -0.00345857
80 2 3.54921 9.37994 10.569 -0.0142869 -0.00632886 -0.036676
81 2 6.34601 10.9535 8.69724 -0.00383025 0.0128214 -0.0113874
82 1 6.03798 5.71423 9.56055 -0.000395973 0.00423409 0.00118102
83 2 5.11354 5.64034 9.24598 -0.0119939 -0.0367689 0.0177895
84 2 6.06029 5.22941 10.3929 0.02111 -0.0113145 -0.00219128
85 1 10.1026 13.642 11.8477 0.00135226 0.000620258 0.00225497
86 2 9.51445 12.9769 11.3844 0.0169785 -0.00366374 0.0175869
87 2 3.06457 4.84941 10.7637 0.00377784 0.0059087 0.0163365
88 1 8.01498 11.9488 5.85068 0.00797026 -0.000265811 -0.00406229
89 2 7.24387 11.6114 6.2895 0.013247 0.0188009 0.000528425
90 2 7.69789 12.7789 5.49034 0.014444 -0.0059233 -0.00322849
91 1 4.64768 5.83126 6.10076 -0.00156737 0.000348442 0.00203732
92 2 4.15771 7.51766 6.63652 0.0248061 0.0101485 0.0220525
93 2 4.32451 4.72991 7.25564 -0.0154304 -0.0111052 0.00710697
94 1 4.11072 4.09567 7.9794 0.00409798 0.00446779 0.00156538
95 2 3.5163 4.44668 8.62533 -0.00700657 -0.00396687 -0.00176654
96 2 4.33691 5.35988 5.32561 -0.0193944 0.0147394 0.0153284
ITEM: TIMESTEP
1
ITEM: NUMBER OF ATOMS
96
ITEM: BOX BOUNDS pp pp pp
2.9236100000000000e+00 1.2773600000000000e+01
4.0306300000000004e+00 1.3880599999999999e+01
2.1372399999999998e+00 1.1987200000000000e+01
ITEM: ATOMS id type x y z vx vy vz
1 1 5.65542 4.14531 2.50111 -0.00526405 0.000639258 -0.00330514
2 2 5.34136 13.0993 2.68306 -0.00338251 -0.0209167 0.00819434
3 2 11.0405 13.3913 11.7336 -0.00609322 0.0181758 0.0170132
4 1 12.6511 12.9207 11.4074 0.00230088 0.00365433 0.000899153
5 2 12.6372 11.983 10.9987 0.00299859 0.00706834 -0.00436376
6 2 3.43951 13.0657 2.27838 0.0117422 0.0179046 0.00250427
7 1 11.6374 7.25233 3.85362 -0.00102404 0.000826618 0.0018632
8 2 10.7999 7.15525 4.33954 -0.0103949 -0.00871211 -0.00526146
9 2 9.71995 8.92918 7.72676 -0.0034052 1.15261e-05 0.0257038
10 1 8.80459 8.75492 7.97878 -0.00161505 -0.000538325 0.00228108
11 2 8.73776 7.81888 7.90919 0.018625 -0.0128294 -0.00815634
12 2 7.20756 9.83433 9.16312 0.00905085 -0.00638562 -0.00279328
13 1 6.60449 9.00455 2.24612 0.00911453 -0.00282635 -0.000177296
14 2 6.75025 9.41503 11.2567 -0.0119892 -0.0233845 0.000569233
15 2 5.75843 8.51727 11.8652 -0.0163038 0.0208186 0.0333906
16 1 8.60824 7.22655 11.9775 0.00284308 0.00619783 -0.00823309
17 2 8.87954 6.63806 3.70815 -0.0030332 0.0151984 -0.010271
18 2 7.79131 7.85146 2.28104 0.0358203 -0.0372047 0.0035146
19 1 4.08764 7.57768 11.791 -0.00774176 -0.00180175 0.00389804
20 2 3.28268 7.6179 2.4678 0.00616195 0.0100769 0.00606477
21 2 12.1218 10.1035 11.1661 -0.00432979 -0.000695814 -0.0360961
22 1 10.3898 9.55271 11.9757 -0.0036432 -0.00127229 -0.00529947
23 2 10.0211 9.76633 3.04105 0.0105151 0.000859198 0.00172481
24 2 9.38428 7.82165 11.9754 -0.00294971 -0.0215078 0.0300821
25 1 4.18605 8.5046 6.74711 -0.00511108 -0.00556944 -0.00869098
26 2 3.68113 8.88921 5.9398 -0.0153276 0.00021162 0.00346188
27 2 12.4202 5.75098 4.21949 -0.0247525 0.0141686 0.0140275
28 1 8.94823 6.68464 4.70482 -0.00645897 -0.00221591 -0.00345825
29 2 9.35399 5.93217 5.08874 -0.00601825 -0.0146341 -0.0074947
30 2 7.5077 5.93863 4.97921 0.000474144 -0.00652098 0.00256068
31 1 3.19497 9.66623 4.47319 0.00650449 -0.00357773 -0.00268454
32 2 12.418 10.2806 4.83181 -0.0292245 0.00931914 -0.0214732
33 2 3.92067 10.3043 4.19476 0.00618804 -0.00292534 -0.0343218
34 1 8.22842 5.39419 8.07888 0.000168319 0.00267786 0.0014141
35 2 8.56734 4.49445 7.81369 -0.0103424 0.0155691 0.0104424
36 2 7.45535 5.31804 8.66609 -0.0366978 0.000925003 0.00470408
37 1 8.93511 11.6794 10.4161 0.00184057 0.0025303 -0.00249938
38 2 9.28274 11.9934 9.50672 0.0153444 0.00474465 0.000279663
39 2 9.91624 10.2168 11.4282 0.00702055 -0.00911268 -0.0299471
40 1 12.1131 12.1487 5.17272 -0.00441771 -0.00154194 0.00159861
41 2 12.5806 4.17072 4.5504 -0.0200675 0.0171787 -0.0289739
42 2 11.2094 12.3631 5.03213 -0.0134621 0.016672 -0.0136252
43 1 3.20094 4.9466 4.16793 -0.00189912 -0.00442277 0.004886
44 2 11.9622 8.10841 4.19812 0.0209731 -0.00142159 0.0332843
45 2 4.91835 4.60267 3.02318 0.00403507 0.00365594 -0.0142966
46 1 9.62886 12.5326 7.90931 -0.00108008 0.00105783 0.00344283
47 2 9.01607 12.0347 7.37615 0.0099258 0.010793 -0.00857366
48 2 10.5262 12.1395 7.84614 0.00970186 0.00840423 0.0139663
49 1 10.3786 6.35538 9.79559 -0.00455665 -0.00296005 -0.00359658
50 2 9.5687 6.4034 9.30769 -0.00800915 -0.0043329 -0.0120165
51 2 10.23 5.56803 10.3795 -0.0153589 -0.0155298 -0.00220522
52 1 9.7054 9.56126 4.88284 0.000265348 0.00288357 0.00172165
53 2 9.17078 8.77637 4.96881 -0.00950398 -0.00963298 -0.00999512
54 2 9.10546 10.2179 5.36787 0.0138455 0.0012151 -0.000649642
55 1 4.65249 11.5161 2.96965 0.00258714 0.0068757 -9.23749e-05
56 2 5.35807 10.8773 2.81191 0.0158823 -0.00510042 -0.0154709
57 2 4.10944 11.2337 2.20935 -0.0172369 0.0158421 0.00240871
58 1 6.62657 10.5104 9.50628 0.00125034 -0.00533404 -9.20682e-05
59 2 4.81834 12.1867 7.2519 0.024551 -0.0172152 0.0234451
60 2 8.01246 11.4382 10.1659 0.0133668 0.0326027 0.0258384
61 1 7.12008 5.27162 5.64603 0.00317812 0.00471026 -0.00133991
62 2 7.58042 5.63734 6.55232 -0.0141655 0.0182872 -0.00977189
63 2 5.68168 5.90252 6.05547 -0.0246443 -0.00476288 -0.00685496
64 1 5.29739 11.3375 7.19241 0.00578354 0.00238542 0.00223941
65 2 4.66211 10.7348 6.88744 0.0138333 0.00109853 0.0383463
66 2 12.245 12.3322 6.15312 -0.0236597 0.0187423 0.0186926
67 1 12.204 11.8012 8.18251 0.00464888 0.00375702 0.00548975
68 2 3.05666 12.3986 8.45992 0.00886175 -0.0119135 0.00787601
69 2 12.3763 10.9589 8.69561 0.00424761 0.0209605 0.0209854
70 1 9.77756 4.10879 4.7454 -0.00217445 -0.0113275 0.000284754
71 2 9.7875 13.8452 3.73784 -0.00168086 -0.0193215 0.00587383
72 2 9.39847 13.1824 5.12196 0.013681 -0.019639 0.0141768
73 1 11.7203 8.41541 8.16068 -0.000235218 0.00140656 0.00044365
74 2 11.4109 7.80686 8.7918 0.0126988 -0.00845689 -0.00793573
75 2 12.675 8.22842 8.00434 0.00686051 0.0243701 -0.00375805
76 1 3.21874 5.50944 10.0818 0.000667533 -0.00406714 0.00216809
77 2 12.1818 5.821 9.77333 0.00546532 -0.0173342 -0.00905427
78 2 3.99296 6.75905 11.2561 0.0496912 0.0102429 -0.000578999
79 1 3.05115 10.2602 10.5857 -0.00916975 -0.0035721 -0.00340535
80 2 3.54088 9.37819 10.5512 -0.0190404 -0.000809619 -0.0345899
81 2 6.34334 10.9604 8.69109 -0.00651037 0.014096 -0.0124641
82 1 6.03775 5.71637 9.56115 -0.000527689 0.00430268 0.00124197
83 2 5.1081 5.62155 9.25538 -0.00948665 -0.0382408 0.0197107
84 2 6.07045 5.22371 10.3919 0.019674 -0.0113693 -0.00207487
85 1 10.1032 13.6424 11.8489 0.00105045 0.000855046 0.0023833
86 2 9.52331 12.975 11.3932 0.0181044 -0.00417364 0.0175244
87 2 3.06608 4.85187 10.772 0.00225027 0.00402665 0.0165861
88 1 8.01899 11.9486 5.84863 0.00810046 -0.00038734 -0.00415482
89 2 7.2497 11.6207 6.28994 0.00983147 0.0183256 0.00142585
90 2 7.7049 12.7763 5.48892 0.0135388 -0.00432698 -0.002623
91 1 4.64695 5.83159 6.10189 -0.00139927 0.000966203 0.0025223
92 2 4.17047 7.52378 6.6474 0.0259799 0.0135952 0.0210881
93 2 4.31664 4.72518 7.25908 -0.0159415 -0.00752193 0.00627388
94 1 4.11281 4.09772 7.98019 0.00426729 0.00370737 0.00161966
95 2 3.51221 4.44605 8.62526 -0.00931578 0.00132858 0.00141409
96 2 4.32687 5.36634 5.33147 -0.0208818 0.0108855 0.0077976
ITEM: TIMESTEP
2
ITEM: NUMBER OF ATOMS
96
ITEM: BOX BOUNDS pp pp pp
2.9236100000000000e+00 1.2773600000000000e+01
4.0306300000000004e+00 1.3880599999999999e+01
2.1372399999999998e+00 1.1987200000000000e+01
ITEM: ATOMS id type x y z vx vy vz
1 1 5.65264 4.14572 2.49954 -0.00587605 0.000937714 -0.00295508
2 2 5.34081 13.0875 2.68645 0.00128138 -0.0254802 0.0053422
3 2 11.038 13.4 11.7419 -0.00342664 0.0162823 0.016379
4 1 12.6522 12.9226 11.4078 0.00217917 0.00363992 0.000618379
5 2 12.6396 11.988 10.9977 0.00643075 0.0127175 0.000651484
6 2 3.44528 13.0733 2.27927 0.011152 0.0126151 0.000802392
7 1 11.6369 7.25275 3.85459 -0.00102753 0.000843757 0.00204029
8 2 10.7946 7.15078 4.33654 -0.010561 -0.00900859 -0.00680723
9 2 9.71809 8.92887 7.73989 -0.00370013 -0.00104258 0.0267455
10 1 8.80377 8.7547 7.97991 -0.00164758 -0.000389983 0.00226329
11 2 8.74705 7.81188 7.90512 0.0184053 -0.0146322 -0.00803087
12 2 7.21256 9.83054 9.16153 0.0106406 -0.00836542 -0.00352272
13 1 6.60895 9.00309 2.24603 0.00870409 -0.00298782 -0.000162664
14 2 6.74503 9.40428 11.2562 -0.00878367 -0.0194801 -0.0029136
15 2 5.75087 8.52757 11.8829 -0.0137964 0.0204079 0.0375013
16 1 8.60963 7.22969 11.9735 0.00277187 0.00622993 -0.00806187
17 2 8.8782 6.64519 3.70202 -0.00230157 0.0132182 -0.0137575
18 2 7.80979 7.83235 2.28252 0.0368014 -0.0382446 0.00267236
19 1 4.08377 7.57678 11.7929 -0.00769681 -0.00176783 0.00375797
20 2 3.28579 7.62285 2.47103 0.00586363 0.00928937 0.00681377
21 2 12.1202 10.1024 11.1476 -0.00308978 -0.00375021 -0.0372577
22 1 10.3879 9.55216 11.9731 -0.00398196 -0.000942222 -0.00512208
23 2 10.0273 9.76599 3.04117 0.0139765 -0.00201322 -0.00145553
24 2 9.38277 7.81097 2.14022 -0.00223617 -0.0204905 0.0290656
25 1 4.18343 8.50182 6.74273 -0.00534879 -0.00548746 -0.00880119
26 2 3.67432 8.88871 5.94236 -0.0120317 -0.00234315 0.00650073
27 2 12.4083 5.75714 4.22635 -0.0219035 0.0100833 0.01318
28 1 8.94496 6.68373 4.70313 -0.00656969 -0.00143231 -0.00330724
29 2 9.35187 5.92259 5.08471 -0.00271818 -0.0232054 -0.00894986
30 2 7.50714 5.93474 4.98026 -0.0026398 -0.00876512 0.00119559
31 1 3.19832 9.66444 4.47185 0.0068801 -0.00351095 -0.00266618
32 2 12.4019 10.286 4.82162 -0.0339935 0.0118545 -0.0197949
33 2 3.92348 10.3021 4.1774 0.00463934 -0.00614699 -0.0348364
34 1 8.22861 5.39555 8.07945 0.00050771 0.00279053 0.000939024
35 2 8.56162 4.50272 7.8198 -0.0123702 0.0170493 0.013827
36 2 7.43636 5.3179 8.66872 -0.0383779 -0.00134237 0.00518607
37 1 8.93603 11.6806 10.4148 0.00191859 0.00256964 -0.0028656
38 2 9.2911 11.9959 9.50739 0.0177836 0.00524051 0.00229573
39 2 9.92014 10.2117 11.4132 0.0084744 -0.0111682 -0.0297517
40 1 12.111 12.148 5.17363 -0.00424179 -0.00140429 0.00208464
41 2 12.5705 4.17973 4.53572 -0.0201862 0.0181263 -0.0294099
42 2 11.202 12.3718 5.0253 -0.0153817 0.0180179 -0.0136369
43 1 3.19995 4.94439 4.17035 -0.00210905 -0.00434393 0.00477734
44 2 11.973 8.10762 4.2144 0.0218394 -0.00228321 0.0316874
45 2 4.92202 4.60523 3.01502 0.0102461 0.00655762 -0.0180561
46 1 9.62831 12.5333 7.91113 -0.00110567 0.00141405 0.0038509
47 2 9.02055 12.0394 7.37077 0.00801113 0.00789072 -0.0129906
48 2 10.5314 12.1434 7.85296 0.0107181 0.00726355 0.0132554
49 1 10.3763 6.35383 9.79383 -0.0043732 -0.00326541 -0.00342276
50 2 9.56418 6.40101 9.30145 -0.00973996 -0.00520672 -0.0127741
51 2 10.2222 5.56128 10.3779 -0.0155097 -0.0111194 -0.00425409
52 1 9.70542 9.5628 4.88377 -0.000177824 0.00324039 0.00199727
53 2 9.16636 8.77109 4.96358 -0.00790997 -0.0109124 -0.0108821
54 2 9.11381 10.2176 5.36639 0.0191711 -0.00223134 -0.0050084
55 1 4.6538 11.5195 2.96957 0.00266822 0.00643927 -0.000241606
56 2 5.36669 10.8748 2.8047 0.0178712 -0.00423331 -0.0133861
57 2 4.10037 11.2421 2.2108 -0.0186936 0.018004 0.00363468
58 1 6.62722 10.5078 9.50625 0.00134436 -0.00527941 -8.09672e-05
59 2 4.8307 12.1777 7.26381 0.0242601 -0.0179943 0.0241698
60 2 8.01837 11.454 10.1796 0.0096379 0.0306329 0.0288566
61 1 7.12173 5.27408 5.64553 0.00339013 0.00511036 -0.000643628
62 2 7.5723 5.64471 6.54618 -0.0180979 0.0112382 -0.0143956
63 2 5.66962 5.89946 6.05149 -0.0231038 -0.00738447 -0.00907838
64 1 5.30035 11.3388 7.19353 0.00614333 0.00275355 0.00224577
65 2 4.66815 10.7343 6.90636 0.00978022 -0.00363954 0.0371261
66 2 12.2328 12.341 6.16097 -0.02504 0.016415 0.0121387
67 1 12.2063 11.803 8.18527 0.00474125 0.00338263 0.00555375
68 2 3.06122 12.3928 8.46383 0.0095311 -0.0109862 0.00773435
69 2 12.3782 10.9705 8.70575 0.00325216 0.0248788 0.0196127
70 1 9.77654 4.10317 4.74546 -0.00192991 -0.0111726 -4.38418e-06
71 2 9.78663 13.8355 3.74157 -0.00185095 -0.0195728 0.00888152
72 2 9.40485 13.172 5.1292 0.0121238 -0.0216367 0.0145934
73 1 11.7203 8.41618 8.16083 -9.28292e-05 0.00165275 0.000162185
74 2 11.4169 7.80157 8.78887 0.0113631 -0.0127245 -0.00377685
75 2 12.6781 8.2409 8.00226 0.00537869 0.0254885 -0.00453471
76 1 3.21907 5.50745 10.0829 0.000668266 -0.00390636 0.00197696
77 2 12.1847 5.81218 9.76937 0.00585831 -0.0178963 -0.00678626
78 2 4.01779 6.7646 11.2559 0.0491105 0.0115499 -9.94658e-05
79 1 3.04658 10.2583 10.584 -0.00905217 -0.00377725 -0.00343085
80 2 3.53017 9.37913 10.5344 -0.0236337 0.00420353 -0.0323223
81 2 6.3395 10.9676 8.68478 -0.00852391 0.0142353 -0.0120197
82 1 6.03745 5.71853 9.56179 -0.000698947 0.00433843 0.00133126
83 2 5.10405 5.6021 9.26569 -0.00651779 -0.0394206 0.0213351
84 2 6.07996 5.21804 10.3908 0.0185218 -0.0111812 -0.00217904
85 1 10.1037 13.6429 11.8501 0.000727241 0.00115334 0.00254934
86 2 9.53255 12.9727 11.4019 0.0185688 -0.00534852 0.0169727
87 2 3.06682 4.85344 10.7803 0.000716576 0.00236507 0.0165596
88 1 8.02308 11.9484 5.84653 0.00825574 -0.00052364 -0.0042512
89 2 7.2537 11.6297 6.29093 0.00607058 0.0175341 0.00259224
90 2 7.71143 12.7746 5.48772 0.0124064 -0.00224264 -0.00227089
91 1 4.64628 5.83223 6.10328 -0.00129195 0.00159218 0.00303122
92 2 4.18369 7.53126 6.65761 0.0267201 0.0154359 0.019408
93 2 4.30857 4.72239 7.26191 -0.0162897 -0.00347173 0.00477253
94 1 4.11499 4.09938 7.98102 0.00440981 0.00293813 0.00174714
95 2 3.50698 4.44801 8.62674 -0.0113422 0.00631404 0.00429393
96 2 4.31603 5.37077 5.33341 -0.0225091 0.00680069 -4.41499e-05
ITEM: TIMESTEP
3
ITEM: NUMBER OF ATOMS
96
ITEM: BOX BOUNDS pp pp pp
2.9236100000000000e+00 1.2773600000000000e+01
4.0306300000000004e+00 1.3880599999999999e+01
2.1372399999999998e+00 1.1987200000000000e+01
ITEM: ATOMS id type x y z vx vy vz
1 1 5.64955 4.14625 2.49815 -0.00644372 0.00110977 -0.00264024
2 2 5.34264 13.0738 2.6884 0.00606335 -0.0281632 0.00246851
3 2 11.0371 13.4076 11.7499 5.57271e-06 0.0142255 0.0156564
4 1 12.6533 12.9244 11.408 0.00207764 0.00365649 0.000376073
5 2 12.6437 11.9957 10.9993 0.00984506 0.0180292 0.00554649
6 2 3.45066 13.0783 2.27918 0.0102355 0.0072502 -0.00133514
7 1 11.6364 7.25318 3.85566 -0.00101186 0.000891149 0.00225239
8 2 10.7893 7.14624 4.33273 -0.0102749 -0.00895825 -0.00845265
9 2 9.71625 8.92814 7.7535 -0.00339154 -0.00169856 0.0276079
10 1 8.80294 8.75453 7.98104 -0.00170795 -0.000335365 0.00224682
11 2 8.75617 7.80425 7.90116 0.0179719 -0.0153247 -0.00773715
12 2 7.21821 9.82597 9.1596 0.0115984 -0.00948989 -0.00409691
13 1 6.6132 9.00156 2.24596 0.00824182 -0.00313777 -0.000114705
14 2 6.74147 9.39555 11.2538 -0.00548635 -0.0154146 -0.00691147
15 2 5.74464 8.53768 11.9027 -0.0110021 0.0200539 0.041538
16 1 8.61101 7.23278 11.9695 0.00279011 0.00602563 -0.00792785
17 2 8.87724 6.65127 3.69439 -0.00152645 0.0110436 -0.0161195
18 2 7.82811 7.81322 2.28371 0.0350984 -0.0372079 0.00238174
19 1 4.07995 7.57592 11.7947 -0.00753935 -0.00163556 0.00362629
20 2 3.28854 7.62719 2.47462 0.00476384 0.00768768 0.00747864
21 2 12.1188 10.0997 11.1288 -0.00336103 -0.00716554 -0.0372268
22 1 10.3858 9.55177 11.9706 -0.00428365 -0.000637791 -0.00496988
23 2 10.0351 9.76431 3.0396 0.0169899 -0.00443619 -0.00491441
24 2 9.38204 7.80116 2.15448 7.92665e-05 -0.0181368 0.027936
25 1 4.1807 8.49911 6.73831 -0.00554387 -0.00527012 -0.00881861
26 2 3.6691 8.88687 5.9463 -0.00905424 -0.00506537 0.00882309
27 2 12.3983 5.76106 4.23267 -0.0179857 0.00541231 0.0119415
28 1 8.94166 6.68321 4.70151 -0.00661134 -0.000713309 -0.00317879
29 2 9.35127 5.90896 5.07979 -0.000121281 -0.0305273 -0.0111534
30 2 7.50506 5.92987 4.98041 -0.00549879 -0.0103594 -0.00105193
31 1 3.20185 9.66272 4.47052 0.00715043 -0.003344 -0.00261819
32 2 12.384 10.2924 4.81201 -0.0364209 0.0131832 -0.0191515
33 2 3.9253 10.2982 4.15992 0.00228808 -0.00946248 -0.0347733
34 1 8.22893 5.39698 8.07982 0.000698726 0.00294968 0.000587173
35 2 8.55497 4.5115 7.82751 -0.0139632 0.0175032 0.0167774
36 2 7.41698 5.3167 8.67127 -0.0382725 -0.00324236 0.00438005
37 1 8.93702 11.6819 10.4133 0.00210604 0.00262432 -0.00316611
38 2 9.30053 11.9987 9.50902 0.0195316 0.00552118 0.00407863
39 2 9.92472 10.2056 11.3984 0.00969388 -0.0131642 -0.0287513
40 1 12.1089 12.1473 5.1748 -0.00417308 -0.00124909 0.00261036
41 2 12.5604 4.18885 4.52099 -0.0206857 0.0175747 -0.0291593
42 2 11.1941 12.3811 5.01849 -0.0157887 0.0189731 -0.0135556
43 1 3.19884 4.94226 4.1727 -0.00237269 -0.00410907 0.00463494
44 2 11.984 8.10612 4.2298 0.0220543 -0.00418884 0.0297514
45 2 4.9286 4.60923 3.00512 0.0155451 0.00943323 -0.0211881
46 1 9.62776 12.5341 7.91316 -0.00109446 0.00175911 0.00426178
47 2 9.02408 12.0426 7.36316 0.00627369 0.00496043 -0.0173272
48 2 10.5369 12.1468 7.8594 0.0110496 0.00632375 0.0124816
49 1 10.3742 6.35212 9.79217 -0.00424669 -0.00360715 -0.00325885
50 2 9.55896 6.39819 9.29492 -0.0107717 -0.00604088 -0.013181
51 2 10.2145 5.55691 10.3752 -0.0153931 -0.00619795 -0.00657894
52 1 9.70522 9.5645 4.88483 -0.000591082 0.00348586 0.00222346
53 2 9.16287 8.76546 4.95793 -0.00582402 -0.0110459 -0.0116974
54 2 9.12463 10.2157 5.36286 0.0235606 -0.00509646 -0.0087355
55 1 4.65516 11.5226 2.96941 0.00279543 0.0059406 -0.000417094
56 2 5.37595 10.873 2.79853 0.0185249 -0.00240513 -0.0113109
57 2 4.09074 11.2517 2.21298 -0.0195519 0.020124 0.00522686
58 1 6.62791 10.5051 9.5062 0.00142845 -0.00520289 -0.000178826
59 2 4.8426 12.1687 7.27607 0.0226797 -0.0168775 0.0249424
60 2 8.0221 11.4688 10.1947 0.00481469 0.0284416 0.0309474
61 1 7.12347 5.27673 5.64538 0.00355127 0.00543239 3.81653e-05
62 2 7.56233 5.64858 6.53792 -0.0214637 0.00446267 -0.0180665
63 2 5.65857 5.89513 6.04639 -0.0206725 -0.00981521 -0.0112722
64 1 5.30353 11.3402 7.19466 0.00664325 0.00303743 0.00227431
65 2 4.67189 10.7312 6.92456 0.00485414 -0.00898611 0.0356265
66 2 12.22 12.3486 6.16526 -0.0262282 0.0137819 0.00473689
67 1 12.2087 11.8046 8.18806 0.00482447 0.00303045 0.00560607
68 2 3.06619 12.3876 8.46765 0.0104929 -0.00932122 0.00750694
69 2 12.3796 10.9838 8.71523 0.00203505 0.0277273 0.01846
70 1 9.77563 4.09762 4.7454 -0.00169891 -0.0110422 -0.000237589
71 2 9.78565 13.8256 3.74672 -0.00207253 -0.0198602 0.0113876
72 2 9.41059 13.1607 5.13655 0.0110123 -0.0230172 0.0146624
73 1 11.7203 8.41706 8.16084 4.88592e-05 0.00189105 -0.000106893
74 2 11.4223 7.79414 8.78803 0.0101956 -0.0168471 0.000173867
75 2 12.6804 8.25391 7.99981 0.00372184 0.0264904 -0.00525546
76 1 3.2194 5.50554 10.0838 0.00068827 -0.00377647 0.0018082
77 2 12.1876 5.80311 9.76654 0.00583743 -0.0182849 -0.0045551
78 2 4.04207 6.7706 11.256 0.0475153 0.0120374 0.000364352
79 1 3.04209 10.2564 10.5823 -0.00885352 -0.00389937 -0.00353108
80 2 3.51724 9.3824 10.5188 -0.0277808 0.00834418 -0.0299905
81 2 6.33482 10.9746 8.67907 -0.00985989 0.0132247 -0.0101205
82 1 6.03706 5.72071 9.56248 -0.00089736 0.00433888 0.00145218
83 2 5.10158 5.58213 9.27672 -0.00327247 -0.040282 0.0225457
84 2 6.08898 5.21253 10.3897 0.0176931 -0.0107401 -0.00246883
85 1 10.1039 13.6435 11.8514 0.000396362 0.00150357 0.00274483
86 2 9.54187 12.9697 11.4102 0.0184303 -0.00713785 0.0159838
87 2 3.0668 4.85424 10.7885 -0.000760439 0.0010175 0.0161702
88 1 8.02725 11.9481 5.84438 0.00841315 -0.000671552 -0.00434306
89 2 7.25577 11.6383 6.29254 0.00226659 0.0165455 0.00386343
90 2 7.71731 12.774 5.48665 0.0111135 0.000154878 -0.00209723
91 1 4.64565 5.83318 6.10493 -0.00125535 0.00220261 0.00352755
92 2 4.19719 7.53921 6.66681 0.0271125 0.0154486 0.0171073
93 2 4.30036 4.72171 7.26385 -0.0165062 0.000849512 0.0027759
94 1 4.11722 4.10065 7.98193 0.0045083 0.00218626 0.00195358
95 2 3.50086 4.45236 8.62955 -0.0127663 0.0107959 0.00659872
96 2 4.30436 5.37314 5.33143 -0.0240441 0.0028416 -0.00757333
ITEM: TIMESTEP
4
ITEM: NUMBER OF ATOMS
96
ITEM: BOX BOUNDS pp pp pp
2.9236100000000000e+00 1.2773600000000000e+01
4.0306300000000004e+00 1.3880599999999999e+01
2.1372399999999998e+00 1.1987200000000000e+01
ITEM: ATOMS id type x y z vx vy vz
1 1 5.64619 4.14683 2.4969 -0.00693552 0.00115132 -0.00238
2 2 5.34687 13.0593 2.68892 0.010754 -0.0288851 -0.000324598
3 2 11.038 13.4142 11.7576 0.00380239 0.0121264 0.0149087
4 1 12.6543 12.9262 11.4082 0.0019911 0.00372733 0.000175139
5 2 12.6494 12.006 11.0033 0.0131677 0.0225016 0.0100508
6 2 3.45552 13.0806 2.27794 0.00915668 0.00194683 -0.0036775
7 1 11.6359 7.25364 3.85685 -0.00097535 0.000961985 0.00249197
8 2 10.7843 7.14182 4.32809 -0.00961692 -0.00855832 -0.0101216
9 2 9.7147 8.92717 7.7675 -0.00249088 -0.00195583 0.0283103
10 1 8.80207 8.75437 7.98216 -0.00179397 -0.000378376 0.00223027
11 2 8.76502 7.79656 7.89739 0.0173028 -0.0148471 -0.00727026
12 2 7.22416 9.82105 9.15743 0.0118661 -0.00970088 -0.0045098
13 1 6.6172 8.99996 2.24592 0.00775092 -0.00326061 -5.21615e-05
14 2 6.73954 9.38886 11.2493 -0.0023197 -0.0114903 -0.0109719
15 2 5.73986 8.54762 11.9244 -0.00803832 0.0197452 0.0453315
16 1 8.61242 7.23571 11.9655 0.00291414 0.00560058 -0.00783719
17 2 8.87667 6.65623 3.6859 -0.000729114 0.00874223 -0.0171338
18 2 7.84489 7.79514 2.28491 0.0306727 -0.0340858 0.00270455
19 1 4.07623 7.57514 11.7965 -0.00728466 -0.00141209 0.00350566
20 2 3.29056 7.63053 2.47851 0.00299113 0.00536227 0.00806487
21 2 12.1168 10.0952 11.1104 -0.00518162 -0.0108238 -0.0360617
22 1 10.3836 9.55152 11.9681 -0.0045335 -0.00037715 -0.00485717
23 2 10.0443 9.76155 3.03626 0.0194138 -0.0063035 -0.00832782
24 2 9.38285 7.79284 2.16816 0.00372764 -0.014659 0.0267656
25 1 4.17789 8.49655 6.73391 -0.0056911 -0.00492752 -0.00873473
26 2 3.66527 8.88365 5.95118 -0.00656859 -0.00776969 0.0102126
27 2 12.3904 5.76255 4.23829 -0.0132878 0.000538433 0.0103608
28 1 8.93835 6.68302 4.69995 -0.00657465 -9.75978e-05 -0.00307999
29 2 9.35175 5.89206 5.07355 0.00151561 -0.0361173 -0.0142423
30 2 7.50165 5.92438 4.97921 -0.00790081 -0.0111753 -0.0041232
31 1 3.20547 9.6611 4.46923 0.00729621 -0.00308055 -0.00254008
32 2 12.3655 10.2992 4.80247 -0.0363418 0.0132007 -0.019526
33 2 3.92577 10.2926 4.14262 -0.000738587 -0.0127426 -0.0341688
34 1 8.22931 5.3985 8.08004 0.000738245 0.00315864 0.000365087
35 2 8.54765 4.52022 7.83658 -0.0150045 0.0167826 0.0192144
36 2 7.39809 5.31465 8.6731 -0.0364391 -0.00469628 0.00238159
37 1 8.93814 11.6833 10.4116 0.00238308 0.00268584 -0.00339724
38 2 9.31064 12.0015 9.51147 0.0204654 0.00558536 0.00556448
39 2 9.92983 10.1985 11.3844 0.0105705 -0.0149339 -0.0270702
40 1 12.1068 12.1467 5.17624 -0.00421631 -0.00108072 0.00313922
41 2 12.5498 4.1973 4.50656 -0.0215815 0.0155024 -0.0282517
42 2 11.1862 12.3907 5.01175 -0.0147006 0.0195014 -0.0133764
43 1 3.19758 4.94028 4.17498 -0.00267045 -0.00374409 0.00445665
44 2 11.995 8.10343 4.24416 0.0216317 -0.0069629 0.0275163
45 2 4.93756 4.61466 2.99384 0.0196219 0.0122306 -0.0234855
46 1 9.62722 12.535 7.91539 -0.00105796 0.00207196 0.00465684
47 2 9.02682 12.0444 7.35344 0.00498391 0.00227415 -0.0213171
48 2 10.5425 12.1497 7.86544 0.0106004 0.0056451 0.0116589
49 1 10.3721 6.35022 9.79057 -0.00417818 -0.00396446 -0.00312207
50 2 9.55341 6.39497 9.28827 -0.0110603 -0.00681864 -0.0132227
51 2 10.2068 5.55508 10.3713 -0.0150522 -0.00109906 -0.00892505
52 1 9.70482 9.56629 4.886 -0.000946093 0.00360495 0.00238249
53 2 9.16053 8.76004 4.95189 -0.00336054 -0.0101504 -0.0123919
54 2 9.13737 10.2125 5.35765 0.0266708 -0.00704076 -0.0115506
55 1 4.65659 11.5254 2.96915 0.00296458 0.00540117 -0.000606591
56 2 5.38522 10.8724 2.79339 0.018039 0.000172722 -0.00929093
57 2 4.08082 11.2623 2.21603 -0.019897 0.022107 0.00700599
58 1 6.62865 10.5026 9.50607 0.00151145 -0.00511242 -0.000371475
59 2 4.85338 12.1608 7.28875 0.0198963 -0.0140096 0.025813
60 2 8.02318 11.4824 10.2106 -0.000696271 0.0261802 0.0320852
61 1 7.12528 5.27951 5.64557 0.00364295 0.00565146 0.000672104
62 2 7.55084 5.64917 6.52811 -0.0240157 -0.00169231 -0.02044
63 2 5.64894 5.88964 6.04021 -0.0175692 -0.012056 -0.0134178
64 1 5.307 11.3418 7.1958 0.0072428 0.00321357 0.00230491
65 2 4.67301 10.7253 6.94198 -0.000380095 -0.0144128 0.0341275
66 2 12.2066 12.3548 6.16571 -0.027131 0.0109506 -0.00294201
67 1 12.2112 11.806 8.19088 0.00489967 0.00271887 0.00563893
68 2 3.07171 12.3835 8.47133 0.0116692 -0.00699543 0.00714903
69 2 12.3803 10.9982 8.72421 0.000640144 0.0293026 0.0176845
70 1 9.77484 4.09213 4.74523 -0.00148518 -0.0109409 -0.000398723
71 2 9.78456 13.8156 3.75296 -0.0023322 -0.020189 0.0131607
72 2 9.41586 13.1489 5.14386 0.0102489 -0.0236989 0.0143886
73 1 11.7203 8.41807 8.16073 0.000172927 0.00209907 -0.000339161
74 2 11.4271 7.78473 8.78905 0.0093958 -0.0204397 0.00352438
75 2 12.6818 8.26739 7.99701 0.00194746 0.0273366 -0.00590675
76 1 3.21976 5.50368 10.0847 0.000726783 -0.00368364 0.00166677
77 2 12.1905 5.79389 9.76481 0.00536687 -0.018463 -0.00241982
78 2 4.06531 6.77664 11.2563 0.0450502 0.0117438 0.000777214
79 1 3.03773 10.2544 10.5805 -0.00858507 -0.00392634 -0.00369557
80 2 3.50239 9.38747 10.5044 -0.0312232 0.0112869 -0.02772