ITEM: TIMESTEP
0
ITEM: NUMBER OF ATOMS
96
ITEM: BOX BOUNDS pp pp pp
2.9236100000000000e+00 1.2773600000000000e+01
4.0306300000000004e+00 1.3880599999999999e+01
2.1372399999999998e+00 1.1987200000000000e+01
ITEM: ATOMS id type x y z vx vy vz
1 1 7.25791 12.7797 3.12162 0.00962789 -0.00241335 0.000293578
2 2 6.42941 12.3482 3.2539 -0.0189835 0.0117354 0.00017918
3 2 9.40669 13.188 11.0635 0.00453681 -0.014641 -0.00850659
4 1 12.3453 10.0696 2.39349 -0.000128395 0.000568159 -0.000772397
5 2 11.4745 10.2927 11.9479 0.0156212 0.00931639 -0.00732325
6 2 12.2588 9.13544 2.8574 -0.00470307 -0.010698 0.0107095
7 1 12.2304 7.69234 3.83897 0.000699306 0.00176868 -0.00078947
8 2 11.2751 7.51935 3.87381 -0.00491127 0.00590383 -0.00681265
9 2 8.1022 8.34782 8.16087 -0.0017935 0.0102763 0.00192997
10 1 7.45014 7.95073 8.7315 -0.00624636 -0.000809724 -0.00148001
11 2 6.83614 7.45986 8.14686 -0.0311473 0.00762199 -0.010432
12 2 6.47051 9.38286 9.12743 0.0146234 0.00924301 0.000263662
13 1 5.93478 8.57823 2.40735 0.0032872 -0.00626859 -0.000146804
14 2 5.89805 9.08078 11.426 0.00526773 -0.00566451 0.0120211
15 2 5.38498 7.91413 11.9511 0.0273489 0.0100982 0.0136911
16 1 9.5359 8.00171 11.1668 -0.0026984 0.00242253 0.00251763
17 2 9.4403 7.6079 2.15789 0.00574558 -0.00849389 0.0034279
18 2 8.81258 7.58662 10.6844 -0.0115247 0.00850327 0.0102051
19 1 4.79556 5.76673 11.4142 -0.00656596 0.00220702 -0.00315285
20 2 4.53943 5.58503 2.44946 -0.0197193 0.0101384 -0.0166289
21 2 11.2878 8.55761 9.95031 0.040063 0.00654745 -0.0178287
22 1 9.6759 10.7818 11.5895 0.00180103 -0.00258443 -0.0024796
23 2 9.45034 10.7573 2.75675 -0.00835032 0.00575198 -0.00837021
24 2 9.46122 9.88006 11.3411 0.00419052 -0.0090126 0.00530073
25 1 3.27746 8.30635 6.27312 0.00102224 -0.00236481 0.00547158
26 2 3.55688 9.23744 6.14219 -0.0281989 0.0145508 -0.00222686
27 2 3.72169 6.43556 4.05659 0.0467149 -0.020645 0.0114785
28 1 9.46503 7.22148 4.15272 -0.00122571 -0.00497647 0.000450396
29 2 8.91838 6.63858 4.67494 -0.0263195 -0.015781 -0.00283832
30 2 9.2834 8.17573 4.409 -0.0137301 -0.0244216 -0.00330565
31 1 3.82206 11.0971 5.75469 0.00411674 0.000654759 0.00216768
32 2 3.25191 12.5815 5.42845 0.00202337 0.00357665 0.0111336
33 2 4.23904 11.1089 4.83329 0.00629992 0.0130924 -0.0510772
34 1 7.77152 5.07718 9.08908 -0.00503946 0.00682837 -0.000464282
35 2 7.63866 4.12762 9.44424 0.00993622 -0.00885683 -0.0275969
36 2 7.34962 5.65745 9.74322 0.021704 -0.0129593 0.0010301
37 1 7.94231 12.0793 10.1788 0.0059952 0.00140421 0.00241293
38 2 9.10247 12.2815 8.86439 0.0198659 -0.00112462 -0.0201198
39 2 8.49355 11.7625 10.9666 -0.00238087 0.0010376 0.00878666
40 1 12.6808 13.5274 5.34736 -0.00607427 0.00807413 -0.00391578
41 2 3.80974 4.86293 4.57736 -0.00640095 0.000876466 0.0267983
42 2 11.8718 13.4316 4.77011 -0.00332428 -0.0147625 0.012216
43 1 4.29677 5.67487 4.24341 0.000816694 0.0025395 -0.00346797
44 2 12.5914 8.02651 4.69114 -0.0128562 0.00943933 -0.00562149
45 2 7.52928 12.8064 4.02326 0.0114416 -0.0118783 0.00606315
46 1 9.59271 12.5056 8.01492 0.00268177 0.00333049 -0.00450794
47 2 8.48418 12.2005 6.78937 -0.00617408 0.0121346 0.000456771
48 2 10.2768 11.8169 7.98141 0.00339237 -0.0169996 0.00342502
49 1 10.5301 6.78423 8.40593 0.00286743 0.00281655 -0.00334664
50 2 9.80038 6.18108 8.24562 0.00736819 0.00925412 -0.000324071
51 2 10.2154 7.29813 9.12309 0.00968936 0.00898926 -0.00871959
52 1 9.13052 10.5023 4.32381 0.0112825 0.00492455 -0.00139694
53 2 9.23987 10.2219 5.26423 0.00786762 -0.00264702 -0.014954
54 2 9.58693 11.3519 4.37534 0.00815982 -0.0138819 0.012729
55 1 4.86728 10.9592 3.29802 0.00406238 -0.00103358 -0.00433938
56 2 5.4103 10.126 3.23796 -0.00395695 -0.018524 0.00777989
57 2 3.99022 10.6815 2.99433 0.0102618 -0.0041719 0.00465163
58 1 6.09956 10.1104 9.65591 -0.00346926 -0.00898113 2.91822e-05
59 2 5.06131 13.0142 7.7076 -0.0053459 0.0103024 0.00872647
60 2 7.29363 11.3315 9.98975 0.0147537 -0.0314459 -0.0178794
61 1 8.31842 5.30896 6.43783 -0.00845384 -0.00298775 0.00900259
62 2 8.53975 5.26257 7.42628 0.00955323 0.0174483 -0.0167383
63 2 7.38153 5.78937 6.47458 -0.0302755 -0.0080915 -0.00453599
64 1 5.47561 12.0899 7.57391 -0.00496117 -0.0011133 0.00599056
65 2 4.76358 11.5155 6.57916 -0.00649401 0.0021587 0.0111945
66 2 3.6622 4.33328 6.97837 -0.015272 -0.000148428 0.000948077
67 1 11.6863 10.574 7.45408 0.00541267 0.0017409 -0.00025246
68 2 12.273 10.6833 6.72384 0.00441141 0.00997952 0.000155812
69 2 11.9963 9.80859 7.94634 0.0104596 0.0427997 0.0191111
70 1 10.2708 13.1462 4.03217 0.00192223 0.00370394 7.09891e-05
71 2 9.90974 13.4728 3.16464 -0.00689345 0.00219331 -0.0106239
72 2 9.63107 13.4474 4.67999 -0.00800288 0.00307036 -0.0146173
73 1 9.41204 9.17912 7.04923 -0.0106029 -0.00564425 0.000596801
74 2 9.8013 8.33329 7.20654 -0.00318843 -0.0015216 0.00903796
75 2 10.1097 9.78778 6.88313 -0.00310467 0.00962253 -0.000184344
76 1 12.0977 5.05995 9.92947 0.00347969 -0.00195314 -0.00259683
77 2 11.5296 5.73524 9.49863 -0.0204561 0.0235824 0.00353295
78 2 4.07026 5.4157 10.8725 0.00463631 -0.0114263 0.0111792
79 1 12.153 8.72292 9.64939 0.00163664 0.00328302 0.00414521
80 2 12.5768 9.29657 10.3238 -0.020102 -0.00223067 -0.00703678
81 2 5.59064 10.6451 9.02863 0.00536353 -0.00947491 -0.0227304
82 1 7.53387 5.48616 11.6703 0.0031591 -0.00162574 -0.000684878
83 2 7.58975 4.67873 2.37672 0.00803607 -0.0044759 0.00359231
84 2 6.68597 5.92492 11.9541 -0.0124234 0.0230229 -0.0226632
85 1 9.84209 4.18239 11.1647 -0.00549359 -0.00103774 -0.000847133
86 2 9.20045 4.89623 10.9936 -0.00668462 -0.0245937 0.00722035
87 2 11.5006 4.48419 10.4409 -0.00424096 0.021704 -0.0113927
88 1 7.7219 12.5939 6.25293 -0.00269911 -0.00515197 0.00225563
89 2 6.43672 12.3309 7.04393 -0.0022971 0.00512031 0.0029593
90 2 7.97622 13.5685 6.26722 0.00230253 -0.0287917 0.014179
91 1 5.92819 6.66134 6.45306 -0.00231708 -0.00015631 0.0102976
92 2 4.06602 7.81272 6.2011 -0.0113715 -0.00628846 0.00974803
93 2 5.39541 6.07563 7.04112 0.0125271 0.0113745 -0.000953286
94 1 4.16883 4.68051 7.72383 0.00172981 0.00090922 -0.00575028
95 2 3.45932 4.8892 8.40586 -0.0164286 0.0174569 0.0128796
96 2 5.62975 6.34948 5.56673 0.0288423 0.00630364 -0.0209937
ITEM: TIMESTEP
1
ITEM: NUMBER OF ATOMS
96
ITEM: BOX BOUNDS pp pp pp
2.9236100000000000e+00 1.2773600000000000e+01
4.0306300000000004e+00 1.3880599999999999e+01
2.1372399999999998e+00 1.1987200000000000e+01
ITEM: ATOMS id type x y z vx vy vz
1 1 7.26273 12.7785 3.12177 0.00962052 -0.00224908 0.000353457
2 2 6.41883 12.3534 3.25318 -0.0221504 0.00983754 -0.0029842
3 2 9.40854 13.1809 11.0589 0.00306596 -0.0135121 -0.00987069
4 1 12.3453 10.0697 2.39315 7.69379e-06 -7.48127e-05 -0.000563403
5 2 11.4812 10.2978 11.944 0.0109606 0.0111598 -0.00835678
6 2 12.2566 9.13159 2.86213 -0.00402691 -0.00444662 0.00803982
7 1 12.2308 7.69323 3.83842 0.000861375 0.00179538 -0.0014123
8 2 11.2721 7.52215 3.87122 -0.00681705 0.00533575 -0.00359755
9 2 8.10157 8.3532 8.16126 -0.00100917 0.0110401 -0.000273556
10 1 7.44695 7.9503 8.7308 -0.00652412 -0.000929958 -0.00135284
11 2 6.82117 7.46397 8.14164 -0.0282141 0.00916723 -0.0101246
12 2 6.47848 9.38664 9.1273 0.01738 0.00563292 -0.000813029
13 1 5.93647 8.5752 2.40727 0.00351666 -0.00580116 -0.000122777
14 2 5.90194 9.07978 11.4317 0.0104573 0.00251531 0.0100423
15 2 5.39676 7.91555 11.9586 0.0187363 -0.00596603 0.015994
16 1 9.53456 8.00295 11.168 -0.00268055 0.00251806 0.00210992
17 2 9.44318 7.60318 2.16103 0.00582841 -0.0102308 0.00879611
18 2 8.80669 7.59113 10.6893 -0.0119981 0.00957017 0.00947962
19 1 4.79229 5.76786 11.4125 -0.00647297 0.0023081 -0.00362976
20 2 4.52925 5.58978 2.44306 -0.0209269 0.0088813 -0.00858599
21 2 11.307 8.56079 9.94219 0.0348042 0.00571006 -0.0140922
22 1 9.67682 10.7805 11.5883 0.00188823 -0.00257204 -0.00222877
23 2 9.44637 10.7607 2.75077 -0.0075193 0.00790767 -0.0152834
24 2 9.46318 9.87448 11.3428 0.00368707 -0.0131442 0.00157855
25 1 3.27792 8.30522 6.27585 0.000783146 -0.00211608 0.00543244
26 2 3.5428 9.24486 6.14114 -0.0279161 0.0146643 -0.00194669
27 2 3.74421 6.42459 4.06269 0.0422282 -0.0217115 0.0126245
28 1 9.46444 7.21908 4.15292 -0.00113815 -0.00467636 0.000373382
29 2 8.90515 6.63135 4.67408 -0.0261472 -0.0127531 -0.00100655
30 2 9.27621 8.16158 4.40742 -0.0150881 -0.0314902 -0.00286634
31 1 3.82431 11.0975 5.75582 0.00489779 0.00104112 0.00227206
32 2 3.25278 12.583 5.43423 0.00146639 0.00246378 0.0120097
33 2 4.2423 11.1152 4.80907 0.00634952 0.0122111 -0.0444538
34 1 7.76899 5.08048 9.08887 -0.00506411 0.00635224 -0.000448859
35 2 7.644 4.12532 9.42991 0.0113442 -0.000415007 -0.0295326
36 2 7.36074 5.65038 9.7439 0.0223171 -0.0147959 0.00237816
37 1 7.94529 12.08 10.18 0.00587441 0.00129214 0.00224582
38 2 9.11206 12.2814 8.85408 0.0180462 0.000779236 -0.0205105
39 2 8.49196 11.7626 10.971 -0.00408838 -0.000512687 0.00857932
40 1 12.6778 13.5314 5.34538 -0.00607837 0.00805694 -0.00398641
41 2 3.80586 4.86407 4.59071 -0.00895525 0.00392006 0.0264462
42 2 11.8704 13.4242 4.77657 -0.00267409 -0.014771 0.0133296
43 1 4.29728 5.67613 4.24168 0.00127181 0.00237635 -0.00341398
44 2 12.5844 8.0315 4.68967 -0.0148962 0.0104974 -0.000224151
45 2 7.53599 12.8006 4.02723 0.0149532 -0.0115287 0.0091634
46 1 9.59405 12.5072 8.01271 0.00273994 0.00312231 -0.00433981
47 2 8.48121 12.2057 6.79035 -0.00544892 0.0081789 0.0036676
48 2 10.2789 11.8084 7.98257 0.00478882 -0.0165006 0.00106367
49 1 10.5315 6.78558 8.40421 0.00288405 0.00259574 -0.00354196
50 2 9.80402 6.18583 8.2456 0.00688254 0.00950068 0.000221051
51 2 10.2199 7.30312 9.1195 0.008113 0.011035 -0.00556374
52 1 9.13618 10.5047 4.32327 0.0113482 0.00472425 -0.000791361
53 2 9.24326 10.2201 5.25613 0.00572672 -0.00477945 -0.0169467
54 2 9.59105 11.3457 4.38165 0.00863422 -0.0102036 0.0124273
55 1 4.8694 10.9587 3.29589 0.00444086 -0.00102306 -0.00417925
56 2 5.40848 10.1168 3.24183 -0.00337157 -0.0180623 0.00778414
57 2 3.99419 10.6795 2.99597 0.00533656 -0.00391738 0.00174999
58 1 6.09779 10.106 9.65595 -0.00360128 -0.00871939 0.000112574
59 2 5.05827 13.0192 7.71183 -0.00674162 0.00930963 0.00815085
60 2 7.30104 11.316 9.9808 0.0153092 -0.0299435 -0.0177057
61 1 8.3141 5.30755 6.44242 -0.00883883 -0.00263217 0.00930564
62 2 8.54424 5.27087 7.41662 0.0083725 0.0157865 -0.0211391
63 2 7.36757 5.78474 6.4718 -0.0251082 -0.0105497 -0.00630316
64 1 5.47317 12.0894 7.57691 -0.00477868 -0.00100137 0.00602852
65 2 4.75742 11.5159 6.58237 -0.0180506 -0.00081864 0.00142299
66 2 3.6543 4.33331 6.9785 -0.0161336 0.000383982 -0.000241804
67 1 11.6889 10.5749 7.45405 0.00489749 0.00189203 0.00011506
68 2 12.2765 10.6886 6.7224 0.00973075 0.011204 -0.00584261
69 2 12.0018 9.82928 7.95657 0.0116784 0.0393525 0.0221041
70 1 10.2717 13.1481 4.03217 0.00185735 0.00376032 -8.39135e-05
71 2 9.90678 13.4737 3.16009 -0.00471632 0.00137082 -0.00731815
72 2 9.62694 13.4491 4.67272 -0.00851325 0.00386591 -0.0143152
73 1 9.40659 9.17629 7.0495 -0.0111555 -0.00565667 0.000476339
74 2 9.80063 8.33164 7.21134 0.000465736 -0.00482804 0.0101023
75 2 10.1098 9.79346 6.88317 0.00267423 0.0124647 0.000551583
76 1 12.0995 5.05897 9.92817 0.00365341 -0.00189801 -0.00266951
77 2 11.5193 5.74717 9.50014 -0.0198028 0.0235124 0.00280087
78 2 4.0725 5.41016 10.8778 0.00401813 -0.0108868 0.00943051
79 1 12.1539 8.72463 9.65144 0.00218404 0.00354656 0.00399024
80 2 12.5659 9.29486 10.3201 -0.0229568 -0.00400811 -0.00718211
81 2 5.59335 10.6405 9.01727 0.00560451 -0.00900424 -0.0223583
82 1 7.53541 5.48539 11.67 0.00296645 -0.00143351 -0.000449123
83 2 7.59341 4.67662 2.37812 0.00631546 -0.00369521 0.00197674
84 2 6.68042 5.93574 11.9421 -0.00925128 0.019693 -0.0251936
85 1 9.83943 4.1819 11.1643 -0.00513202 -0.000991775 -0.00067776
86 2 9.19658 4.8834 10.9971 -0.00921335 -0.0260973 0.00661623
87 2 11.4981 4.49508 10.4352 -0.00580229 0.0213943 -0.0109601
88 1 7.72058 12.5913 6.25399 -0.00257786 -0.00538194 0.00196673
89 2 6.43507 12.3333 7.04575 -0.00449435 0.00438272 0.00442391
90 2 7.97676 13.5559 6.27429 -0.000226966 -0.020905 0.0139138
91 1 5.92702 6.66121 6.4582 -0.00231678 -0.000345886 0.0101854
92 2 4.06163 7.80876 6.20613 -0.00592981 -0.00937648 0.0103036
93 2 5.40185 6.08157 7.04061 0.012648 0.0117626 -0.000879075
94 1 4.16966 4.68097 7.72101 0.00153527 0.000927462 -0.00549807
95 2 3.45198 4.89758 8.41181 -0.0122406 0.015836 0.0103357
96 2 5.64417 6.35293 5.55641 0.0287054 0.00748311 -0.0195691
ITEM: TIMESTEP
2
ITEM: NUMBER OF ATOMS
96
ITEM: BOX BOUNDS pp pp pp
2.9236100000000000e+00 1.2773600000000000e+01
4.0306300000000004e+00 1.3880599999999999e+01
2.1372399999999998e+00 1.1987200000000000e+01
ITEM: ATOMS id type x y z vx vy vz
1 1 7.26753 12.7775 3.12197 0.00951479 -0.00213372 0.000487525
2 2 6.40726 12.358 3.25092 -0.0229291 0.00907312 -0.00603983
3 2 9.40976 13.1745 11.0536 0.00199243 -0.0120083 -0.0111437
4 1 12.3453 10.0695 2.39293 0.000175068 -0.000736011 -0.0003218
5 2 11.4855 10.3039 11.9395 0.0059729 0.0128809 -0.0093779
6 2 12.2548 9.13099 2.86544 -0.00348147 0.00209333 0.00515982
7 1 12.2313 7.69414 3.83756 0.000974826 0.00183765 -0.00202473
8 2 11.2683 7.52469 3.87021 -0.00812996 0.00486752 -0.000530603
9 2 8.10119 8.35886 8.1606 -0.00080202 0.0114109 -0.00221001
10 1 7.44362 7.9498 8.73015 -0.00681203 -0.00105689 -0.00128293
11 2 6.80793 7.46903 8.13674 -0.0243835 0.0112948 -0.00922621
12 2 6.48789 9.38849 9.12662 0.0203084 0.00164752 -0.00184616
13 1 5.9383 8.57243 2.40723 0.00380914 -0.00527833 -2.99433e-05
14 2 5.90851 9.0833 11.436 0.0152816 0.0104248 0.00770362
15 2 5.40372 7.90816 11.9671 0.00945949 -0.022623 0.0175255
16 1 9.53322 8.00423 11.1689 -0.00267827 0.0025859 0.00175892
17 2 9.44613 7.59767 2.16669 0.00601581 -0.0115552 0.0132554
18 2 8.80058 7.59619 10.6939 -0.0123668 0.0106702 0.00880431
19 1 4.78909 5.76904 11.4106 -0.00634636 0.00241978 -0.00408082
20 2 4.5185 5.59391 2.44087 -0.0219416 0.00771741 -0.000175621
21 2 11.3226 8.56332 9.93622 0.0258811 0.00397931 -0.00941578
22 1 9.67779 10.7792 11.5873 0.00197171 -0.00258868 -0.00202454
23 2 9.44282 10.7652 2.74147 -0.00674874 0.0101813 -0.0213263
24 2 9.46491 9.86692 11.3427 0.00332155 -0.0168338 -0.00199795
25 1 3.27824 8.30423 6.27855 0.000505941 -0.00183343 0.00538364
26 2 3.52896 9.2521 6.14024 -0.0272427 0.0138372 -0.00157059
27 2 3.76392 6.41385 4.06921 0.0355137 -0.019697 0.0131657
28 1 9.46389 7.2168 4.15309 -0.00109479 -0.00451592 0.000326559
29 2 8.89223 6.62583 4.67393 -0.0251056 -0.00908553 1.43538e-05
30 2 9.26831 8.14424 4.40613 -0.0165997 -0.0369703 -0.00211839
31 1 3.82696 11.0981 5.75696 0.00568629 0.00143316 0.00221746
32 2 3.25338 12.584 5.44046 0.000906462 0.00169178 0.012908
33 2 4.24539 11.1211 4.78884 0.0057708 0.0112556 -0.035497
34 1 7.76646 5.08353 9.08863 -0.00502018 0.00582795 -0.000546733
35 2 7.65 4.1272 9.41471 0.0125436 0.00762352 -0.0309998
36 2 7.37194 5.64265 9.7456 0.0219963 -0.0155637 0.00508141
37 1 7.94818 12.0806 10.181 0.00568916 0.00107336 0.00207055
38 2 9.12052 12.2823 8.84388 0.0153699 0.00267696 -0.0197159
39 2 8.48946 11.762 10.9752 -0.00600924 -0.00196152 0.00810797
40 1 12.6747 13.5355 5.34337 -0.00602205 0.00798743 -0.00401081
41 2 3.80078 4.86685 4.60381 -0.0111854 0.00733327 0.0258122
42 2 11.8691 13.4168 4.78344 -0.00272006 -0.0145847 0.0138629
43 1 4.29804 5.67725 4.24 0.0018554 0.00199681 -0.0032913
44 2 12.5765 8.03701 4.69092 -0.0167878 0.0114408 0.00509262
45 2 7.54423 12.7949 4.03242 0.0176249 -0.0114708 0.0109423
46 1 9.59545 12.5087 8.01058 0.00289885 0.00286627 -0.004227
47 2 8.47873 12.2087 6.79304 -0.00431876 0.00324041 0.00718951
48 2 10.2816 11.8004 7.98247 0.00561424 -0.0151269 -0.00155366
49 1 10.533 6.78683 8.40239 0.00294565 0.00239777 -0.00372185
50 2 9.80726 6.19058 8.24584 0.00577762 0.00930519 0.000690845
51 2 10.2235 7.30917 9.11753 0.00646777 0.0130542 -0.00242833
52 1 9.14187 10.507 4.32302 0.011371 0.00447232 -0.000247633
53 2 9.2456 10.2171 5.24728 0.0036373 -0.00731239 -0.0179141
54 2 9.59556 11.3417 4.38777 0.00968488 -0.00551711 0.0118328
55 1 4.87172 10.9582 3.29384 0.00483328 -0.00103906 -0.00400086
56 2 5.40693 10.1079 3.24574 -0.00290344 -0.0171192 0.00789753
57 2 3.99556 10.6776 2.99608 6.20548e-05 -0.00365613 -0.00142844
58 1 6.09596 10.1017 9.65602 -0.00374112 -0.00840799 0.00015832
59 2 5.05457 13.0235 7.71575 -0.0079349 0.00777631 0.00753694
60 2 7.30894 11.3016 9.97204 0.0166263 -0.0271519 -0.0171463
61 1 8.30958 5.30633 6.44714 -0.0092653 -0.00226769 0.0094623
62 2 8.54812 5.27836 7.40514 0.00721055 0.0142369 -0.023841
63 2 7.35642 5.77882 6.46828 -0.0192413 -0.0131581 -0.00749568
64 1 5.47083 12.0889 7.57994 -0.00457395 -0.000818305 0.00608095
65 2 4.74553 11.5147 6.58058 -0.0293307 -0.00393668 -0.00871032
66 2 3.64607 4.33366 6.97813 -0.0165523 0.00113263 -0.00101342
67 1 11.6912 10.5759 7.4542 0.00434752 0.00211237 0.000410472
68 2 12.2827 10.6945 6.718 0.0148361 0.012212 -0.0113162
69 2 12.008 9.84794 7.96844 0.013463 0.0349539 0.0255409
70 1 10.2727 13.15 4.03209 0.00176222 0.00383958 -0.000286165
71 2 9.90502 13.4742 3.15732 -0.00214573 0.000291616 -0.00363146
72 2 9.62256 13.4513 4.66567 -0.00899964 0.00460964 -0.0137174
73 1 9.40088 9.17346 7.04971 -0.0115943 -0.00562279 0.000346756
74 2 9.80177 8.32846 7.21664 0.00389881 -0.0074261 0.0110134
75 2 10.1124 9.80024 6.88368 0.00703593 0.0139031 0.00173659
76 1 12.1014 5.05805 9.9268 0.00374102 -0.0017094 -0.00283134
77 2 11.5098 5.75875 9.50143 -0.0176075 0.0222454 0.00260475
78 2 4.07428 5.40481 10.8819 0.00286481 -0.0105934 0.00675862
79 1 12.1552 8.72647 9.65338 0.00288325 0.00378025 0.0036844
80 2 12.5538 9.29256 10.3166 -0.0244771 -0.00446831 -0.00596571
81 2 5.59624 10.6361 9.00627 0.00606842 -0.00869112 -0.0213429
82 1 7.53684 5.48473 11.6699 0.00273697 -0.00121498 -0.000204834
83 2 7.59607 4.67503 2.3787 0.0040643 -0.00246426 0.000325818
84 2 6.67672 5.94461 11.9289 -0.0052254 0.0153785 -0.0275994
85 1 9.83696 4.1814 11.164 -0.0047395 -0.00104402 -0.000498507
86 2 9.19124 4.87013 11.0002 -0.0125344 -0.0263817 0.00571915
87 2 11.4948 4.50558 10.4299 -0.00750019 0.0202223 -0.00989958
88 1 7.71932 12.5885 6.2549 -0.00247634 -0.00562645 0.00166993
89 2 6.43223 12.3353 7.04835 -0.00710638 0.00344277 0.00608758
90 2 7.97599 13.5476 6.28113 -0.00294736 -0.0118245 0.01334
91 1 5.92587 6.66099 6.46325 -0.00223686 -0.00046027 0.00995256
92 2 4.06009 7.80334 6.2114 -0.000249832 -0.0119363 0.0107519
93 2 5.40806 6.08739 7.04024 0.0116034 0.0109033 -0.000346804
94 1 4.17037 4.68144 7.71833 0.00124094 0.000947487 -0.00520466
95 2 3.44708 4.90504 8.4162 -0.00684934 0.0138217 0.00677866
96 2 5.65846 6.35696 5.54716 0.0283104 0.00860246 -0.0168205
ITEM: TIMESTEP
3
ITEM: NUMBER OF ATOMS
96
ITEM: BOX BOUNDS pp pp pp
2.9236100000000000e+00 1.2773600000000000e+01
4.0306300000000004e+00 1.3880599999999999e+01
2.1372399999999998e+00 1.1987200000000000e+01
ITEM: ATOMS id type x y z vx vy vz
1 1 7.27225 12.7764 3.12226 0.0093163 -0.00206375 0.00069963
2 2 6.3959 12.3625 3.24714 -0.0214828 0.00929248 -0.00901604
3 2 9.41054 13.1689 11.0478 0.00134595 -0.0102107 -0.0123073
4 1 12.3454 10.069 2.39283 0.00035177 -0.00137849 -7.07608e-05
5 2 11.4872 10.3107 11.9346 0.00103672 0.0143885 -0.0102517
6 2 12.2531 9.13368 2.86729 -0.00310655 0.0084978 0.00226716
7 1 12.2318 7.69507 3.8364 0.00103646 0.00189692 -0.00259721
8 2 11.264 7.52702 3.87069 -0.00867412 0.00449899 0.00231468
9 2 8.10077 8.36461 8.15905 -0.00117779 0.0113785 -0.00380495
10 1 7.44014 7.94924 8.72952 -0.007095 -0.00117262 -0.00126533
11 2 6.79679 7.47527 8.13241 -0.0199064 0.0137959 -0.00789563
12 2 6.49879 9.38829 9.12545 0.0232265 -0.00241512 -0.0026432
13 1 5.94028 8.56992 2.40724 0.00408658 -0.00476614 4.94145e-05
14 2 5.91722 9.0902 11.4394 0.0188166 0.0154757 0.00658724
15 2 5.40622 7.89293 11.9761 0.00166906 -0.0362055 0.0179407
16 1 9.53188 8.00553 11.1697 -0.00269185 0.00261725 0.00148665
17 2 9.4492 7.59163 2.17429 0.00630447 -0.0122876 0.0164062
18 2 8.79432 7.6018 10.6981 -0.0126144 0.011797 0.0082311
19 1 4.78595 5.77028 11.4084 -0.00620844 0.00253214 -0.00446684
20 2 4.50731 5.5975 2.44289 -0.0226076 0.00677 0.00784756
21 2 11.3329 8.56477 9.93278 0.0140323 0.00142696 -0.00415071
22 1 9.67879 10.7779 11.5863 0.00205574 -0.00264985 -0.00189605
23 2 9.43963 10.7709 2.72945 -0.00614384 0.0125064 -0.0260999
24 2 9.4665 9.85765 11.3408 0.0031443 -0.0198282 -0.00526879
25 1 3.27842 8.30339 6.28123 0.00021948 -0.00153491 0.00532115
26 2 3.51556 9.25869 6.13957 -0.0261838 0.0119923 -0.0010732
27 2 3.77973 6.40489 4.07586 0.0268251 -0.0147371 0.0131666
28 1 9.46335 7.21457 4.15325 -0.00108743 -0.00450971 0.00029853
29 2 8.88005 6.62227 4.6741 -0.0232787 -0.00499982 0.000313435
30 2 9.25961 8.12461 4.40531 -0.0183148 -0.0404051 -0.000994435
31 1 3.83 11.099 5.75804 0.00645761 0.00182462 0.00204302
32 2 3.25368 12.5847 5.44714 0.000250679 0.00148037 0.0137596
33 2 4.24807 11.1265 4.77357 0.00489369 0.010219 -0.0250236
34 1 7.76397 5.08631 9.08832 -0.00491121 0.00529199 -0.000761736
35 2 7.65655 4.13294 9.39891 0.0135018 0.0146834 -0.031885
36 2 7.38274 5.63482 9.74898 0.0208137 -0.0152711 0.00906894
37 1 7.95098 12.0811 10.182 0.00544961 0.000757448 0.00188663
38 2 9.12743 12.2841 8.83437 0.0119378 0.00449045 -0.0177799
39 2 8.48595 11.7607 10.9791 -0.00806887 -0.00326603 0.00742729
40 1 12.6717 13.5394 5.34137 -0.00590532 0.00786155 -0.00398846
41 2 3.79468 4.87141 4.61652 -0.0130668 0.0109824 0.0249134
42 2 11.8677 13.4096 4.79043 -0.00342442 -0.0142267 0.0138477
43 1 4.29913 5.67812 4.23839 0.00254756 0.00142048 -0.00311435
44 2 12.5677 8.04294 4.69476 -0.0185774 0.0121567 0.0100295
45 2 7.55361 12.7891 4.03817 0.0195086 -0.011647 0.0113886
46 1 9.59695 12.5101 8.00849 0.0031489 0.00257021 -0.00417439
47 2 8.47689 12.209 6.79754 -0.003058 -0.00220751 0.0107656
48 2 10.2845 11.7933 7.98102 0.00587493 -0.0129587 -0.00433377
49 1 10.5345 6.78798 8.40049 0.00303841 0.00223429 -0.00386882
50 2 9.8098 6.19513 8.24629 0.00411968 0.00872053 0.00109768
51 2 10.2263 7.31618 9.11707 0.00489197 0.0148167 0.000380806
52 1 9.14755 10.5092 4.32302 0.0113614 0.00419254 0.000224312
53 2 9.2469 10.2128 5.23822 0.00163263 -0.0102219 -0.0178026
54 2 9.60073 11.3402 4.39348 0.0111332 -0.00019363 0.0109797
55 1 4.87424 10.9576 3.29189 0.00521303 -0.00108795 -0.00380945
56 2 5.40557 10.0997 3.24973 -0.00262244 -0.0157036 0.00807159
57 2 3.99426 10.6758 2.99454 -0.00506531 -0.00329441 -0.0047138
58 1 6.09405 10.0976 9.65611 -0.00387671 -0.00807139 0.00015941
59 2 5.05033 13.0269 7.71936 -0.00883996 0.00562686 0.00692177
60 2 7.31767 11.2888 9.96366 0.0185166 -0.0232023 -0.0162534
61 1 8.30484 5.30529 6.45189 -0.00970958 -0.00190989 0.00944959
62 2 8.55145 5.2851 7.39278 0.00622599 0.012828 -0.0244832
63 2 7.34833 5.77158 6.4643 -0.0131026 -0.0157143 -0.00810755
64 1 5.4686 12.0885 7.58299 -0.00434851 -0.000558529 0.00614384
65 2 4.72809 11.5119 6.57366 -0.0401397 -0.00720364 -0.0190435
66 2 3.63774 4.33445 6.97748 -0.0165159 0.00209256 -0.00136934
67 1 11.6932 10.577 7.45446 0.00379878 0.00237473 0.000617709
68 2 12.2914 10.7008 6.71108 0.0192511 0.0128627 -0.0156256
69 2 12.0152 9.86423 7.98211 0.0156531 0.0301277 0.0290617
70 1 10.2735 13.1519 4.03189 0.00164137 0.00393272 -0.00051319
71 2 9.90463 13.474 3.15646 0.000679533 -0.000927445 0.000123146
72 2 9.61794 13.4537 4.659 -0.0094277 0.00529021 -0.0128571
73 1 9.39499 9.17067 7.04985 -0.0118899 -0.00555067 0.000209276
74 2 9.80453 8.32421 7.22235 0.00690333 -0.0090155 0.0117137
75 2 10.1168 9.80736 6.88491 0.00975835 0.0137776 0.00342096
76 1 12.1032 5.05726 9.92533 0.00374195 -0.00140295 -0.00306615
77 2 11.5017 5.76941 9.50275 -0.0139784 0.0199013 0.00282997
78 2 4.07536 5.39956 10.8845 0.00133564 -0.0104837 0.00340253
79 1 12.1568 8.72841 9.65513 0.00368042 0.00397396 0.00324336
80 2 12.5414 9.29039 10.3141 -0.0245564 -0.0035078 -0.00332637
81 2 5.59942 10.6318 8.99593 0.00674201 -0.00852888 -0.0197541
82 1 7.53814 5.48418 11.6698 0.00249144 -0.000973961 3.69191e-05
83 2 7.59747 4.67415 2.37845 0.00139689 -0.00100046 -0.00126671
84 2 6.67519 5.95112 11.9145 -0.00076498 0.0103729 -0.0297591
85 1 9.83469 4.18085 11.1638 -0.00432817 -0.00118332 -0.000314481
86 2 9.18405 4.85702 11.0028 -0.0164695 -0.0255522 0.00457134
87 2 11.4906 4.5153 10.4253 -0.00923117 0.0183154 -0.008317
88 1 7.71811 12.5856 6.25566 -0.00238301 -0.00586923 0.00138102
89 2 6.42797 12.3367 7.05184 -0.0101239 0.00228763 0.00792752
90 2 7.97382 13.5441 6.28763 -0.00581873 -0.00231267 0.012559
91 1 5.92478 6.66075 6.46815 -0.00208493 -0.000496598 0.00961251
92 2 4.06138 7.79682 6.21688 0.00517765 -0.0136742 0.011127
93 2 5.41346 6.09247 7.04026 0.00948641 0.00886837 0.000620782
94 1 4.1709 4.68192 7.71581 0.000868604 0.000964191 -0.00489212
95 2 3.44513 4.9114 8.41859 -0.000630251 0.0115216 0.00255537
96 2 5.67248 6.36153 5.53959 0.0276304 0.00962542 -0.0129314
ITEM: TIMESTEP
4
ITEM: NUMBER OF ATOMS
96
ITEM: BOX BOUNDS pp pp pp
2.9236100000000000e+00 1.2773600000000000e+01
4.0306300000000004e+00 1.3880599999999999e+01
2.1372399999999998e+00 1.1987200000000000e+01
ITEM: ATOMS id type x y z vx vy vz
1 1 7.27685 12.7754 3.12267 0.00904098 -0.00203038 0.000981926
2 2 6.38578 12.3673 3.2419 -0.0181437 0.0102763 -0.01188
3 2 9.4111 13.1643 11.0413 0.00113555 -0.00822344 -0.0133477
4 1 12.3457 10.0681 2.39286 0.000516687 -0.00196669 0.000165403
5 2 11.4865 10.3182 11.9293 -0.00349055 0.0155974 -0.0108475
6 2 12.2517 9.13949 2.86771 -0.00293694 0.0143642 -0.000445075
7 1 12.2323 7.69603 3.83496 0.00104612 0.00197463 -0.00310077
8 2 11.2596 7.52918 3.87253 -0.00835013 0.00421585 0.00486218
9 2 8.10001 8.37024 8.15679 -0.00208573 0.0109691 -0.00502225
10 1 7.43652 7.94863 8.72888 -0.0073585 -0.00126188 -0.00128976
11 2 6.78802 7.48282 8.12884 -0.0150852 0.0164365 -0.00632922
12 2 6.51112 9.38608 9.12397 0.0259354 -0.00626281 -0.00302132
13 1 5.94238 8.56766 2.40728 0.00429716 -0.00432239 7.93438e-05
14 2 5.92732 9.09877 11.4426 0.0210913 0.0176174 0.00676733
15 2 5.40539 7.87196 11.985 -0.00385502 -0.0457192 0.0176719
16 1 9.53053 8.00685 11.1704 -0.00271904 0.00260821 0.00130572
17 2 9.45243 7.58538 2.18309 0.00667805 -0.0123158 0.0180162
18 2 8.78797 7.60799 10.7021 -0.0127458 0.0129361 0.00778552
19 1 4.78288 5.77157 11.4061 -0.00608369 0.00263448 -0.00475472
20 2 4.4959 5.60068 2.44872 -0.0227792 0.00613365 0.0147719
21 2 11.3366 8.56475 9.93207 0.000475843 -0.00175678 0.001236
22 1 9.67984 10.7766 11.5854 0.00214515 -0.00276697 -0.0018672
23 2 9.43668 10.7777 2.71537 -0.00581374 0.0147584 -0.0294142
24 2 9.46805 9.84709 11.3374 0.00318594 -0.0219284 -0.00807851
25 1 3.27846 8.3027 6.28387 -5.04536e-05 -0.00124108 0.00524081
26 2 3.50278 9.2641 6.13917 -0.0247424 0.00911132 -0.000443277
27 2 3.79074 6.39911 4.08238 0.0166464 -0.00734091 0.0127689
28 1 9.4628 7.21229 4.15339 -0.00110599 -0.00466227 0.00027826
29 2 8.86895 6.62083 4.67425 -0.0207959 -0.000763909 1.01622e-05
30 2 9.25 8.10383 4.40514 -0.0202682 -0.0414539 0.000541672
31 1 3.83342 11.1 5.75901 0.00718587 0.00220631 0.00178705
32 2 3.25363 12.5854 5.45422 -0.000608214 0.00206139 0.0144847
33 2 4.25028 11.1313 4.76381 0.00404547 0.00911636 -0.0138965
34 1 7.76154 5.08882 9.08787 -0.00474671 0.00478608 -0.0010869
35 2 7.66351 4.14189 9.38282 0.0142011 0.020245 -0.0321116
36 2 7.39275 5.62738 9.75467 0.0189297 -0.0140408 0.0141209
37 1 7.95363 12.0813 10.1829 0.00516861 0.000360162 0.00169312
38 2 9.13245 12.2868 8.8261 0.00790928 0.00615924 -0.014842
39 2 8.48139 11.7587 10.9826 -0.0101588 -0.00438789 0.00663043
40 1 12.6688 13.5433 5.33939 -0.00573237 0.0076766 -0.00392159
41 2 3.78772 4.87783 4.62872 -0.0145816 0.0147456 0.0237658
42 2 11.8657 13.4026 4.79729 -0.00468854 -0.0137211 0.0133585
43 1 4.30059 5.67867 4.23688 0.00331466 0.000689373 -0.00290245
44 2 12.5579 8.04916 4.70095 -0.0202882 0.0125401 0.0143091
45 2 7.56374 12.7832 4.04381 0.0206653 -0.0120129 0.0106146
46 1 9.5986 12.5113 8.00641 0.00347345 0.00224443 -0.00418088
47 2 8.47567 12.2065 6.8038 -0.00196415 -0.00764289 0.0141139
48 2 10.2875 11.7874 7.97814 0.00562614 -0.0101379 -0.00717677
49 1 10.536 6.78906 8.39852 0.00314542 0.00211354 -0.00396864
50 2 9.81138 6.1993 8.24694 0.0020312 0.00784064 0.00146105
51 2 10.2284 7.32398 9.11791 0.0035113 0.0161123 0.00259316
52 1 9.15323 10.5112 4.32324 0.0113338 0.00391254 0.000620822
53 2 9.24723 10.2069 5.22948 -0.00025122 -0.0134151 -0.0166815
54 2 9.6067 11.3415 4.39875 0.0127551 0.00533096 0.0100523
55 1 4.87693 10.9571 3.29003 0.00555377 -0.00117597 -0.00361066
56 2 5.40431 10.0922 3.25382 -0.00258466 -0.0138326 0.00825076
57 2 3.99049 10.6743 2.99137 -0.00955053 -0.00272451 -0.0078764
58 1 6.09208 10.0936 9.65618 -0.00399548 -0.00773505 0.000110966
59 2 5.04573 13.0291 7.72267 -0.00938347 0.00281096 0.00634419
60 2 7.32746 11.2784 9.95579 0.0207471 -0.0183062 -0.0151131
61 1 8.29987 5.30442 6.45659 -0.0101468 -0.00157459 0.009256
62 2 8.55435 5.29118 7.38066 0.0055463 0.0115863 -0.0228595
63 2 7.34332 5.76311 6.46017 -0.00712792 -0.0180281 -0.0081581
64 1 5.46648 12.0883 7.58608 -0.00410726 -0.00022237 0.00620999
65 2 4.70539 11.5075 6.56154 -0.0501951 -0.0105758 -0.0293582
66 2 3.62955 4.33576 6.97676 -0.0160494 0.00323426 -0.00136081
67 1 11.695 10.5783 7.45481 0.00328527 0.00265048 0.000732615
68 2 12.302 10.7074 6.70237 0.0225518 0.0130343 -0.0182327
69 2 12.0236 9.87807 7.99751 0.0180293 0.0254277 0.0322744
70 1 10.2743 13.1539 4.03157 0.00150021 0.00402938 -0.000740706
71 2 9.9057 13.4732 3.15744 0.00360673 -0.0021628 0.00362206
72 2 9.61313 13.4566 4.65282 -0.0097629 0.00589829 -0.0117789
73 1 9.38899 9.16791 7.04992 -0.0120263 -0.00545106 6.67404e-05
74 2 9.80867 8.31945 7.22836 0.00930733 -0.00942594 0.0121642
75 2 10.1221 9.81402 6.8871 0.0107774 0.0120965 0.00559549
76 1 12.1051 5.05665 9.92373 0.0036595 -0.0010024 -0.0033527
77 2 11.4958 5.77865 9.50426 -0.00910891 0.0166734 0.00333956
78 2 4.07561 5.39433 10.8853 -0.000365011 -0.0104595 -0.000340185
79 1 12.1589 8.73044 9.65662 0.00450083 0.00412103 0.00270173
80 2 12.5293 9.28905 10.3133 -0.0232422 -0.0011889 0.000632655