ITEM: TIMESTEP
0
ITEM: NUMBER OF ATOMS
96
ITEM: BOX BOUNDS pp pp pp
2.9236100000000000e+00 1.2773600000000000e+01
4.0306300000000004e+00 1.3880599999999999e+01
2.1372399999999998e+00 1.1987200000000000e+01
ITEM: ATOMS id type x y z vx vy vz
1 1 7.26273 12.7785 3.12177 0.00962052 -0.00224908 0.000353457
2 2 6.41883 12.3534 3.25318 -0.0221504 0.00983754 -0.0029842
3 2 9.40854 13.1809 11.0589 0.00306596 -0.0135121 -0.00987069
4 1 12.3453 10.0697 2.39315 7.69379e-06 -7.48127e-05 -0.000563403
5 2 11.4812 10.2978 11.944 0.0109606 0.0111598 -0.00835678
6 2 12.2566 9.13159 2.86213 -0.00402691 -0.00444662 0.00803982
7 1 12.2308 7.69323 3.83842 0.000861375 0.00179538 -0.0014123
8 2 11.2721 7.52215 3.87122 -0.00681705 0.00533575 -0.00359755
9 2 8.10157 8.3532 8.16126 -0.00100917 0.0110401 -0.000273556
10 1 7.44695 7.9503 8.7308 -0.00652412 -0.000929958 -0.00135284
11 2 6.82117 7.46397 8.14164 -0.0282141 0.00916723 -0.0101246
12 2 6.47848 9.38664 9.1273 0.01738 0.00563292 -0.000813029
13 1 5.93647 8.5752 2.40727 0.00351666 -0.00580116 -0.000122777
14 2 5.90194 9.07978 11.4317 0.0104573 0.00251531 0.0100423
15 2 5.39676 7.91555 11.9586 0.0187363 -0.00596603 0.015994
16 1 9.53456 8.00295 11.168 -0.00268055 0.00251806 0.00210992
17 2 9.44318 7.60318 2.16103 0.00582841 -0.0102308 0.00879611
18 2 8.80669 7.59113 10.6893 -0.0119981 0.00957017 0.00947962
19 1 4.79229 5.76786 11.4125 -0.00647297 0.0023081 -0.00362976
20 2 4.52925 5.58978 2.44306 -0.0209269 0.0088813 -0.00858599
21 2 11.307 8.56079 9.94219 0.0348042 0.00571006 -0.0140922
22 1 9.67682 10.7805 11.5883 0.00188823 -0.00257204 -0.00222877
23 2 9.44637 10.7607 2.75077 -0.0075193 0.00790767 -0.0152834
24 2 9.46318 9.87448 11.3428 0.00368707 -0.0131442 0.00157855
25 1 3.27792 8.30522 6.27585 0.000783146 -0.00211608 0.00543244
26 2 3.5428 9.24486 6.14114 -0.0279161 0.0146643 -0.00194669
27 2 3.74421 6.42459 4.06269 0.0422282 -0.0217115 0.0126245
28 1 9.46444 7.21908 4.15292 -0.00113815 -0.00467636 0.000373382
29 2 8.90515 6.63135 4.67408 -0.0261472 -0.0127531 -0.00100655
30 2 9.27621 8.16158 4.40742 -0.0150881 -0.0314902 -0.00286634
31 1 3.82431 11.0975 5.75582 0.00489779 0.00104112 0.00227206
32 2 3.25278 12.583 5.43423 0.00146639 0.00246378 0.0120097
33 2 4.2423 11.1152 4.80907 0.00634952 0.0122111 -0.0444538
34 1 7.76899 5.08048 9.08887 -0.00506411 0.00635224 -0.000448859
35 2 7.644 4.12532 9.42991 0.0113442 -0.000415007 -0.0295326
36 2 7.36074 5.65038 9.7439 0.0223171 -0.0147959 0.00237816
37 1 7.94529 12.08 10.18 0.00587441 0.00129214 0.00224582
38 2 9.11206 12.2814 8.85408 0.0180462 0.000779236 -0.0205105
39 2 8.49196 11.7626 10.971 -0.00408838 -0.000512687 0.00857932
40 1 12.6778 13.5314 5.34538 -0.00607837 0.00805694 -0.00398641
41 2 3.80586 4.86407 4.59071 -0.00895525 0.00392006 0.0264462
42 2 11.8704 13.4242 4.77657 -0.00267409 -0.014771 0.0133296
43 1 4.29728 5.67613 4.24168 0.00127181 0.00237635 -0.00341398
44 2 12.5844 8.0315 4.68967 -0.0148962 0.0104974 -0.000224151
45 2 7.53599 12.8006 4.02723 0.0149532 -0.0115287 0.0091634
46 1 9.59405 12.5072 8.01271 0.00273994 0.00312231 -0.00433981
47 2 8.48121 12.2057 6.79035 -0.00544892 0.0081789 0.0036676
48 2 10.2789 11.8084 7.98257 0.00478882 -0.0165006 0.00106367
49 1 10.5315 6.78558 8.40421 0.00288405 0.00259574 -0.00354196
50 2 9.80402 6.18583 8.2456 0.00688254 0.00950068 0.000221051
51 2 10.2199 7.30312 9.1195 0.008113 0.011035 -0.00556374
52 1 9.13618 10.5047 4.32327 0.0113482 0.00472425 -0.000791361
53 2 9.24326 10.2201 5.25613 0.00572672 -0.00477945 -0.0169467
54 2 9.59105 11.3457 4.38165 0.00863422 -0.0102036 0.0124273
55 1 4.8694 10.9587 3.29589 0.00444086 -0.00102306 -0.00417925
56 2 5.40848 10.1168 3.24183 -0.00337157 -0.0180623 0.00778414
57 2 3.99419 10.6795 2.99597 0.00533656 -0.00391738 0.00174999
58 1 6.09779 10.106 9.65595 -0.00360128 -0.00871939 0.000112574
59 2 5.05827 13.0192 7.71183 -0.00674162 0.00930963 0.00815085
60 2 7.30104 11.316 9.9808 0.0153092 -0.0299435 -0.0177057
61 1 8.3141 5.30755 6.44242 -0.00883883 -0.00263217 0.00930564
62 2 8.54424 5.27087 7.41662 0.0083725 0.0157865 -0.0211391
63 2 7.36757 5.78474 6.4718 -0.0251082 -0.0105497 -0.00630316
64 1 5.47317 12.0894 7.57691 -0.00477868 -0.00100137 0.00602852
65 2 4.75742 11.5159 6.58237 -0.0180506 -0.00081864 0.00142299
66 2 3.6543 4.33331 6.9785 -0.0161336 0.000383982 -0.000241804
67 1 11.6889 10.5749 7.45405 0.00489749 0.00189203 0.00011506
68 2 12.2765 10.6886 6.7224 0.00973075 0.011204 -0.00584261
69 2 12.0018 9.82928 7.95657 0.0116784 0.0393525 0.0221041
70 1 10.2717 13.1481 4.03217 0.00185735 0.00376032 -8.39135e-05
71 2 9.90678 13.4737 3.16009 -0.00471632 0.00137082 -0.00731815
72 2 9.62694 13.4491 4.67272 -0.00851325 0.00386591 -0.0143152
73 1 9.40659 9.17629 7.0495 -0.0111555 -0.00565667 0.000476339
74 2 9.80063 8.33164 7.21134 0.000465736 -0.00482804 0.0101023
75 2 10.1098 9.79346 6.88317 0.00267423 0.0124647 0.000551583
76 1 12.0995 5.05897 9.92817 0.00365341 -0.00189801 -0.00266951
77 2 11.5193 5.74717 9.50014 -0.0198028 0.0235124 0.00280087
78 2 4.0725 5.41016 10.8778 0.00401813 -0.0108868 0.00943051
79 1 12.1539 8.72463 9.65144 0.00218404 0.00354656 0.00399024
80 2 12.5659 9.29486 10.3201 -0.0229568 -0.00400811 -0.00718211
81 2 5.59335 10.6405 9.01727 0.00560451 -0.00900424 -0.0223583
82 1 7.53541 5.48539 11.67 0.00296645 -0.00143351 -0.000449123
83 2 7.59341 4.67662 2.37812 0.00631546 -0.00369521 0.00197674
84 2 6.68042 5.93574 11.9421 -0.00925128 0.019693 -0.0251936
85 1 9.83943 4.1819 11.1643 -0.00513202 -0.000991775 -0.00067776
86 2 9.19658 4.8834 10.9971 -0.00921335 -0.0260973 0.00661623
87 2 11.4981 4.49508 10.4352 -0.00580229 0.0213943 -0.0109601
88 1 7.72058 12.5913 6.25399 -0.00257786 -0.00538194 0.00196673
89 2 6.43507 12.3333 7.04575 -0.00449435 0.00438272 0.00442391
90 2 7.97676 13.5559 6.27429 -0.000226966 -0.020905 0.0139138
91 1 5.92702 6.66121 6.4582 -0.00231678 -0.000345886 0.0101854
92 2 4.06163 7.80876 6.20613 -0.00592981 -0.00937648 0.0103036
93 2 5.40185 6.08157 7.04061 0.012648 0.0117626 -0.000879075
94 1 4.16966 4.68097 7.72101 0.00153527 0.000927462 -0.00549807
95 2 3.45198 4.89758 8.41181 -0.0122406 0.015836 0.0103357
96 2 5.64417 6.35293 5.55641 0.0287054 0.00748311 -0.0195691
ITEM: TIMESTEP
1
ITEM: NUMBER OF ATOMS
96
ITEM: BOX BOUNDS pp pp pp
2.9236100000000000e+00 1.2773600000000000e+01
4.0306300000000004e+00 1.3880599999999999e+01
2.1372399999999998e+00 1.1987200000000000e+01
ITEM: ATOMS id type x y z vx vy vz
1 1 7.26753 12.7774 3.12197 0.00951489 -0.00213366 0.000487609
2 2 6.40726 12.358 3.25091 -0.0229292 0.00907288 -0.00603901
3 2 9.40975 13.1745 11.0536 0.00199314 -0.0120066 -0.0111435
4 1 12.3453 10.0695 2.39293 0.000174478 -0.00073588 -0.000322012
5 2 11.4855 10.3038 11.9396 0.00597874 0.0128816 -0.00937699
6 2 12.2547 9.13099 2.86544 -0.00347862 0.0020911 0.00516116
7 1 12.2313 7.69414 3.83756 0.000974643 0.00183755 -0.00202475
8 2 11.2683 7.52469 3.87021 -0.00812888 0.00486734 -0.000531537
9 2 8.10119 8.35886 8.1606 -0.00080193 0.0114109 -0.0022103
10 1 7.44362 7.9498 8.73015 -0.00681209 -0.00105687 -0.00128291
11 2 6.80792 7.46902 8.13674 -0.024383 0.0112952 -0.00922596
12 2 6.48789 9.38849 9.12662 0.0203068 0.00165061 -0.00184363
13 1 5.9383 8.57243 2.40723 0.00380919 -0.00527818 -3.00395e-05
14 2 5.90851 9.08329 11.436 0.0152798 0.0104194 0.00770688
15 2 5.40372 7.90816 11.9671 0.00946046 -0.0226196 0.0175236
16 1 9.53322 8.00423 11.169 -0.00267844 0.00258598 0.00175828
17 2 9.44613 7.59767 2.16669 0.00601454 -0.0115585 0.0132615
18 2 8.80059 7.59619 10.6939 -0.0123628 0.0106722 0.00880765
19 1 4.78908 5.76904 11.4106 -0.00634625 0.00241984 -0.00408071
20 2 4.5185 5.59391 2.44087 -0.0219411 0.00771764 -0.000174984
21 2 11.3226 8.56332 9.93621 0.0258773 0.00397909 -0.00941348
22 1 9.67779 10.7792 11.5872 0.00197178 -0.00258855 -0.00202418
23 2 9.44282 10.7652 2.74146 -0.00674826 0.010181 -0.021329
24 2 9.46491 9.86691 11.3427 0.00332077 -0.0168363 -0.00199864
25 1 3.27825 8.30423 6.27856 0.000505889 -0.00183333 0.00538366
26 2 3.52896 9.25211 6.14025 -0.027243 0.0138369 -0.00157061
27 2 3.76392 6.41385 4.06921 0.0355142 -0.0196974 0.0131658
28 1 9.46389 7.2168 4.15309 -0.00109475 -0.00451594 0.000326546
29 2 8.89223 6.62582 4.67393 -0.0251059 -0.00908571 1.46588e-05
30 2 9.26831 8.14424 4.40613 -0.0165999 -0.03697 -0.00211821
31 1 3.82696 11.0981 5.75696 0.00568654 0.0014331 0.00221765
32 2 3.25338 12.584 5.44046 0.000908855 0.00168508 0.0129074
33 2 4.24539 11.1211 4.78884 0.00577042 0.0112562 -0.0354967
34 1 7.76646 5.08353 9.08864 -0.00502017 0.00582799 -0.000546774
35 2 7.65 4.12721 9.41471 0.0125436 0.00762245 -0.0309995
36 2 7.37193 5.64265 9.7456 0.0219961 -0.0155633 0.00508152
37 1 7.94819 12.0806 10.1811 0.00568906 0.00107332 0.00207042
38 2 9.12052 12.2823 8.84388 0.0153697 0.00267694 -0.0197154
39 2 8.48946 11.762 10.9752 -0.00600936 -0.00196124 0.00810851
40 1 12.6748 13.5354 5.34337 -0.00602253 0.00798804 -0.00401099
41 2 3.80078 4.86685 4.60381 -0.0111841 0.00733487 0.0258115
42 2 11.8691 13.4168 4.78344 -0.00271725 -0.0145856 0.0138649
43 1 4.29805 5.67725 4.24 0.0018553 0.00199675 -0.00329125
44 2 12.5765 8.03701 4.69092 -0.0167861 0.0114417 0.00509412
45 2 7.54424 12.7949 4.03243 0.0176234 -0.0114712 0.0109402
46 1 9.59545 12.5087 8.01058 0.00289872 0.00286637 -0.00422705
47 2 8.47873 12.2087 6.79304 -0.00432132 0.0032448 0.00718733
48 2 10.2816 11.8004 7.98247 0.00561576 -0.0151285 -0.00155371
49 1 10.533 6.78682 8.40239 0.0029461 0.00239777 -0.0037221
50 2 9.80726 6.19058 8.24584 0.00577346 0.00930318 0.000691331
51 2 10.2235 7.30916 9.11753 0.00646498 0.0130562 -0.00242464
52 1 9.14186 10.507 4.32302 0.011371 0.00447238 -0.00024782
53 2 9.24559 10.2171 5.24728 0.00363718 -0.00731359 -0.0179122
54 2 9.59557 11.3417 4.38777 0.00968498 -0.00551661 0.0118324
55 1 4.87172 10.9582 3.29384 0.00483338 -0.00103909 -0.00400087
56 2 5.40693 10.1079 3.24574 -0.00290426 -0.0171186 0.00789739
57 2 3.99555 10.6776 2.99608 6.20854e-05 -0.00365644 -0.0014285
58 1 6.09595 10.1017 9.65602 -0.00374092 -0.0084083 0.000158237
59 2 5.05457 13.0235 7.71575 -0.00793469 0.00777753 0.00753674
60 2 7.30894 11.3016 9.97204 0.0166268 -0.0271511 -0.0171457
61 1 8.30958 5.30632 6.44713 -0.00926525 -0.00226758 0.00946231
62 2 8.54812 5.27836 7.40514 0.00721074 0.0142368 -0.0238407
63 2 7.35642 5.77882 6.46828 -0.0192418 -0.013158 -0.00749582
64 1 5.47083 12.0889 7.57994 -0.00457412 -0.000818553 0.00608086
65 2 4.74553 11.5147 6.58058 -0.0293317 -0.00393798 -0.0087102
66 2 3.64607 4.33366 6.97813 -0.0165527 0.00113232 -0.00101407
67 1 11.6912 10.5759 7.45419 0.00434732 0.00211222 0.000410819
68 2 12.2827 10.6945 6.718 0.0148397 0.0122131 -0.0113215
69 2 12.008 9.84795 7.96845 0.0134622 0.0349547 0.0255406
70 1 10.2726 13.15 4.03208 0.00176305 0.00383914 -0.000286085
71 2 9.90502 13.4741 3.15732 -0.00215058 0.000295183 -0.00363544
72 2 9.62255 13.4512 4.66568 -0.00900695 0.00461344 -0.013714
73 1 9.40089 9.17346 7.04971 -0.0115939 -0.00562255 0.000346702
74 2 9.80176 8.32847 7.21664 0.00389823 -0.00742663 0.0110136
75 2 10.1124 9.80024 6.88368 0.00703166 0.0139001 0.00173754
76 1 12.1014 5.05805 9.92681 0.00374074 -0.00170914 -0.00283151
77 2 11.5098 5.75875 9.50143 -0.0176035 0.0222432 0.00260582
78 2 4.07428 5.40482 10.8819 0.00286275 -0.0105945 0.00675607
79 1 12.1552 8.72647 9.65338 0.00288371 0.00378051 0.00368451
80 2 12.5539 9.29257 10.3166 -0.0244807 -0.0044721 -0.00596955
81 2 5.59624 10.6361 9.00627 0.00606753 -0.00868993 -0.0213441
82 1 7.53684 5.48472 11.6698 0.00273696 -0.00121503 -0.000204792
83 2 7.59607 4.67504 2.37869 0.00406404 -0.00246355 0.000325281
84 2 6.67672 5.94461 11.9289 -0.0052253 0.0153783 -0.0275991
85 1 9.83696 4.1814 11.164 -0.00473952 -0.00104418 -0.000498519
86 2 9.19123 4.87013 11.0002 -0.0125349 -0.0263812 0.00571892
87 2 11.4948 4.50559 10.4299 -0.00749955 0.0202206 -0.00989835
88 1 7.71932 12.5885 6.2549 -0.00247626 -0.00562682 0.00166999
89 2 6.43222 12.3353 7.04835 -0.00710583 0.00344415 0.00608725
90 2 7.97599 13.5476 6.28114 -0.00294548 -0.0118247 0.0133413
91 1 5.92587 6.661 6.46325 -0.0022369 -0.000460338 0.00995248
92 2 4.06009 7.80335 6.2114 -0.000248772 -0.0119371 0.0107517
93 2 5.40806 6.08739 7.04025 0.0116039 0.0109039 -0.000347462
94 1 4.17037 4.68144 7.71833 0.00124098 0.000947537 -0.00520463
95 2 3.44708 4.90504 8.41619 -0.00684957 0.0138217 0.00677899
96 2 5.65846 6.35696 5.54716 0.0283106 0.00860286 -0.0168194
ITEM: TIMESTEP
2
ITEM: NUMBER OF ATOMS
96
ITEM: BOX BOUNDS pp pp pp
2.9236100000000000e+00 1.2773600000000000e+01
4.0306300000000004e+00 1.3880599999999999e+01
2.1372399999999998e+00 1.1987200000000000e+01
ITEM: ATOMS id type x y z vx vy vz
1 1 7.27224 12.7764 3.12226 0.0093165 -0.00206362 0.000699773
2 2 6.3959 12.3625 3.24714 -0.0214833 0.00929193 -0.00901455
3 2 9.41053 13.1689 11.0478 0.00134727 -0.0102074 -0.0123071
4 1 12.3455 10.069 2.39283 0.000350626 -0.00137825 -7.11717e-05
5 2 11.4872 10.3107 11.9346 0.00104795 0.0143897 -0.01025
6 2 12.2531 9.13368 2.86729 -0.00310095 0.00849349 0.00226976
7 1 12.2318 7.69507 3.8364 0.0010361 0.00189675 -0.00259724
8 2 11.264 7.52702 3.87069 -0.00867204 0.00449862 0.00231282
9 2 8.10077 8.36461 8.15905 -0.00117764 0.0113785 -0.00380552
10 1 7.44014 7.94924 8.72952 -0.00709512 -0.00117258 -0.00126531
11 2 6.79679 7.47527 8.13241 -0.0199053 0.0137968 -0.00789521
12 2 6.49879 9.38829 9.12546 0.0232234 -0.00240923 -0.00263836
13 1 5.94028 8.56992 2.40724 0.0040867 -0.00476585 4.92774e-05
14 2 5.91722 9.0902 11.4394 0.0188138 0.0154675 0.00659222
15 2 5.40622 7.89293 11.9761 0.00166985 -0.0362012 0.0179376
16 1 9.53188 8.00554 11.1698 -0.00269216 0.00261739 0.00148544
17 2 9.44919 7.59162 2.17429 0.00630203 -0.012294 0.0164179
18 2 8.79433 7.6018 10.6981 -0.0126069 0.0118008 0.00823752
19 1 4.78594 5.77028 11.4084 -0.00620824 0.00253225 -0.00446662
20 2 4.50731 5.5975 2.44289 -0.0226065 0.00677046 0.00784879
21 2 11.3329 8.56477 9.93278 0.0140251 0.00142664 -0.00414618
22 1 9.67879 10.7779 11.5863 0.00205587 -0.0026496 -0.00189535
23 2 9.43962 10.7709 2.72944 -0.00614286 0.0125057 -0.0261049
24 2 9.4665 9.85764 11.3408 0.0031428 -0.0198328 -0.00527008
25 1 3.27843 8.30339 6.28123 0.000219379 -0.00153471 0.00532119
26 2 3.51556 9.2587 6.13957 -0.0261843 0.0119916 -0.00107323
27 2 3.77972 6.40489 4.07586 0.026826 -0.0147381 0.0131668
28 1 9.46335 7.21456 4.15325 -0.00108735 -0.00450974 0.000298503
29 2 8.88004 6.62226 4.67409 -0.0232793 -0.00500016 0.000314029
30 2 9.25961 8.12461 4.4053 -0.0183153 -0.0404043 -0.000994077
31 1 3.83 11.0989 5.75804 0.00645809 0.00182449 0.00204341
32 2 3.25369 12.5847 5.44714 0.000255318 0.00146733 0.0137585
33 2 4.24807 11.1265 4.77357 0.00489294 0.0102202 -0.025023
34 1 7.76397 5.08631 9.08832 -0.0049112 0.00529207 -0.000761815
35 2 7.65654 4.13294 9.39891 0.0135019 0.0146813 -0.0318844
36 2 7.38274 5.63482 9.74898 0.0208134 -0.0152703 0.00906911
37 1 7.95098 12.0811 10.1821 0.00544943 0.000757371 0.00188637
38 2 9.12743 12.2841 8.83436 0.0119373 0.00449043 -0.0177789
39 2 8.48595 11.7606 10.9791 -0.00806909 -0.00326544 0.00742837
40 1 12.6718 13.5394 5.34137 -0.00590626 0.00786275 -0.00398882
41 2 3.79468 4.8714 4.61652 -0.0130641 0.0109855 0.0249119
42 2 11.8677 13.4096 4.79043 -0.00341908 -0.0142284 0.0138514
43 1 4.29914 5.67813 4.23839 0.00254737 0.00142038 -0.00311426
44 2 12.5676 8.04294 4.69476 -0.0185741 0.0121583 0.0100323
45 2 7.55361 12.7891 4.03817 0.019506 -0.0116477 0.011385
46 1 9.59695 12.5101 8.00848 0.00314865 0.00257039 -0.00417448
47 2 8.47689 12.2089 6.79754 -0.0030629 -0.00219902 0.0107614
48 2 10.2845 11.7933 7.98102 0.00587778 -0.0129617 -0.00433386
49 1 10.5344 6.78798 8.40049 0.00303927 0.00223428 -0.0038693
50 2 9.80979 6.19513 8.24629 0.00411171 0.00871677 0.00109871
51 2 10.2264 7.31618 9.11708 0.0048866 0.0148204 0.000387736
52 1 9.14755 10.5092 4.32302 0.0113614 0.00419265 0.000223945
53 2 9.2469 10.2128 5.23822 0.00163236 -0.0102243 -0.0177989
54 2 9.60073 11.3402 4.39348 0.0111334 -0.000192619 0.0109788
55 1 4.87423 10.9577 3.29189 0.00521321 -0.00108802 -0.00380948
56 2 5.40558 10.0997 3.24973 -0.00262399 -0.0157025 0.00807131
57 2 3.99425 10.6758 2.99454 -0.00506526 -0.00329504 -0.00471395
58 1 6.09405 10.0976 9.65611 -0.00387633 -0.00807199 0.00015925
59 2 5.05034 13.027 7.71937 -0.00883955 0.00562925 0.00692135
60 2 7.31767 11.2888 9.96365 0.0185175 -0.0232007 -0.0162522
61 1 8.30483 5.30528 6.45188 -0.00970949 -0.00190968 0.00944961
62 2 8.55145 5.28511 7.39278 0.00622632 0.0128279 -0.0244827
63 2 7.34833 5.77158 6.4643 -0.0131037 -0.015714 -0.0081078
64 1 5.4686 12.0886 7.58299 -0.00434884 -0.000559022 0.00614367
65 2 4.72809 11.512 6.57366 -0.0401418 -0.00720625 -0.0190433
66 2 3.63775 4.33444 6.97749 -0.0165168 0.00209199 -0.00137058
67 1 11.6932 10.577 7.45446 0.00379839 0.00237444 0.00061837
68 2 12.2913 10.7008 6.71108 0.0192579 0.0128647 -0.0156355
69 2 12.0153 9.86423 7.98211 0.0156516 0.0301295 0.0290611
70 1 10.2735 13.1519 4.03188 0.00164299 0.00393186 -0.000513031
71 2 9.90463 13.474 3.15645 0.000670112 -0.000920537 0.000115692
72 2 9.61793 13.4537 4.65901 -0.00944184 0.00529754 -0.012851
73 1 9.395 9.17067 7.04985 -0.0118893 -0.00555022 0.000209179
74 2 9.80453 8.32421 7.22235 0.0069022 -0.00901658 0.011714
75 2 10.1168 9.80736 6.88491 0.0097502 0.013772 0.00342272
76 1 12.1032 5.05726 9.92534 0.00374141 -0.00140247 -0.00306646
77 2 11.5017 5.76941 9.50275 -0.0139707 0.0198972 0.00283191
78 2 4.07536 5.39957 10.8846 0.00133167 -0.0104857 0.0033976
79 1 12.1568 8.72841 9.65512 0.00368131 0.00397447 0.00324359
80 2 12.5414 9.29039 10.3141 -0.0245634 -0.00351535 -0.00333393
81 2 5.59942 10.6318 8.99593 0.00674033 -0.00852658 -0.0197564
82 1 7.53815 5.48417 11.6698 0.00249143 -0.00097404 3.69984e-05
83 2 7.59747 4.67416 2.37845 0.0013964 -0.000999111 -0.00126774
84 2 6.67519 5.95112 11.9145 -0.000764784 0.0103724 -0.0297585
85 1 9.83469 4.18086 11.1638 -0.00432821 -0.00118361 -0.000314503
86 2 9.18405 4.85702 11.0028 -0.0164705 -0.0255513 0.00457092
87 2 11.4906 4.5153 10.4253 -0.00922986 0.018312 -0.00831467
88 1 7.7181 12.5857 6.25566 -0.00238284 -0.00586995 0.00138113
89 2 6.42796 12.3367 7.05184 -0.0101229 0.00229039 0.00792688
90 2 7.97381 13.5441 6.28763 -0.00581503 -0.00231309 0.0125615
91 1 5.92478 6.66075 6.46815 -0.00208502 -0.000496726 0.0096124
92 2 4.06138 7.79682 6.21688 0.00517966 -0.0136757 0.0111266
93 2 5.41345 6.09247 7.04026 0.00948737 0.00886954 0.000619524
94 1 4.1709 4.68192 7.71581 0.000868678 0.000964288 -0.00489205
95 2 3.44513 4.9114 8.41859 -0.000630703 0.0115216 0.00255602
96 2 5.67248 6.36153 5.53959 0.0276308 0.00962618 -0.0129292
ITEM: TIMESTEP
3
ITEM: NUMBER OF ATOMS
96
ITEM: BOX BOUNDS pp pp pp
2.9236100000000000e+00 1.2773600000000000e+01
4.0306300000000004e+00 1.3880599999999999e+01
2.1372399999999998e+00 1.1987200000000000e+01
ITEM: ATOMS id type x y z vx vy vz
1 1 7.27684 12.7753 3.12267 0.00904126 -0.0020302 0.000982104
2 2 6.38578 12.3673 3.2419 -0.0181446 0.0102755 -0.011878
3 2 9.4111 13.1643 11.0413 0.00113729 -0.00821889 -0.0133474
4 1 12.3457 10.0681 2.39285 0.000515066 -0.00196634 0.000164824
5 2 11.4865 10.3182 11.9293 -0.00347487 0.0155993 -0.0108452
6 2 12.2516 9.13949 2.86771 -0.00292881 0.014358 -0.000441346
7 1 12.2323 7.69603 3.83496 0.00104561 0.00197439 -0.00310079
8 2 11.2596 7.52919 3.87252 -0.0083472 0.00421525 0.00485942
9 2 8.10001 8.37024 8.15679 -0.00208556 0.010969 -0.00502302
10 1 7.43652 7.94863 8.72888 -0.00735867 -0.00126182 -0.00128972
11 2 6.78802 7.48282 8.12884 -0.0150836 0.0164377 -0.00632863
12 2 6.51111 9.38608 9.12398 0.0259311 -0.00625459 -0.00301454
13 1 5.94239 8.56766 2.40728 0.00429737 -0.00432199 7.9229e-05
14 2 5.92732 9.09876 11.4426 0.0210881 0.0176084 0.00677265
15 2 5.40539 7.87196 11.9851 -0.00385524 -0.0457156 0.017668
16 1 9.53053 8.00685 11.1704 -0.00271948 0.00260839 0.00130404
17 2 9.45243 7.58537 2.18311 0.00667462 -0.0123246 0.0180321
18 2 8.78798 7.60799 10.7021 -0.0127353 0.0129413 0.00779456
19 1 4.78287 5.77157 11.4061 -0.00608342 0.00263462 -0.0047544
20 2 4.49589 5.60068 2.44872 -0.0227775 0.00613435 0.0147735
21 2 11.3366 8.56475 9.93207 0.000466121 -0.00175693 0.00124257
22 1 9.67984 10.7766 11.5853 0.00214533 -0.00276662 -0.00186619
23 2 9.43667 10.7777 2.71536 -0.00581225 0.0147575 -0.0294214
24 2 9.46805 9.84708 11.3374 0.00318386 -0.0219347 -0.00808028
25 1 3.27846 8.30269 6.28388 -5.05955e-05 -0.0012408 0.00524087
26 2 3.50278 9.2641 6.13917 -0.0247429 0.00911025 -0.000443304
27 2 3.79074 6.39911 4.08238 0.0166476 -0.00734225 0.0127691
28 1 9.4628 7.21229 4.15339 -0.00110587 -0.00466233 0.000278219
29 2 8.86895 6.62082 4.67424 -0.0207969 -0.00076436 1.10054e-05
30 2 9.25 8.10383 4.40514 -0.0202689 -0.0414528 0.000542208
31 1 3.83341 11.0999 5.759 0.00718657 0.00220611 0.00178763
32 2 3.25363 12.5854 5.45422 -0.000601598 0.00204267 0.0144832
33 2 4.25028 11.1313 4.76382 0.0040444 0.00911819 -0.0138955
34 1 7.76155 5.08882 9.08787 -0.00474669 0.0047862 -0.00108701
35 2 7.6635 4.14189 9.38283 0.0142013 0.0202421 -0.0321108
36 2 7.39275 5.62738 9.75467 0.0189293 -0.0140397 0.0141212
37 1 7.95364 12.0814 10.183 0.00516836 0.00036005 0.00169275
38 2 9.13245 12.2868 8.8261 0.00790876 0.00615925 -0.0148407
39 2 8.48139 11.7587 10.9826 -0.0101591 -0.00438695 0.006632
40 1 12.6689 13.5433 5.33939 -0.00573372 0.00767833 -0.0039221
41 2 3.78772 4.87783 4.62872 -0.0145778 0.0147498 0.0237637
42 2 11.8657 13.4026 4.79729 -0.00468111 -0.0137237 0.0133638
43 1 4.30059 5.67867 4.23688 0.00331441 0.000689229 -0.00290232
44 2 12.5579 8.04916 4.70095 -0.0202834 0.0125424 0.0143129
45 2 7.56374 12.7832 4.04381 0.0206618 -0.012014 0.01061
46 1 9.5986 12.5113 8.0064 0.00347311 0.00224468 -0.00418101
47 2 8.47567 12.2065 6.8038 -0.0019709 -0.00763095 0.0141081
48 2 10.2875 11.7874 7.97814 0.00563002 -0.0101419 -0.00717688
49 1 10.536 6.78906 8.39852 0.00314663 0.00211354 -0.0039693
50 2 9.81137 6.1993 8.24694 0.00202014 0.00783568 0.00146277
51 2 10.2284 7.32398 9.11791 0.00350371 0.0161172 0.00260252
52 1 9.15323 10.5112 4.32324 0.0113338 0.0039127 0.000620299
53 2 9.24723 10.2069 5.22948 -0.000251677 -0.0134186 -0.0166762
54 2 9.6067 11.3415 4.39875 0.0127554 0.00533247 0.010051
55 1 4.87693 10.9571 3.29003 0.00555404 -0.00117606 -0.00361071
56 2 5.40431 10.0922 3.25381 -0.00258681 -0.0138311 0.00825036
57 2 3.99049 10.6743 2.99137 -0.00955051 -0.00272543 -0.00787665
58 1 6.09208 10.0936 9.65618 -0.00399494 -0.00773589 0.000110735
59 2 5.04573 13.0292 7.72268 -0.00938284 0.00281436 0.00634354
60 2 7.32746 11.2784 9.95579 0.0207484 -0.0183039 -0.0151113
61 1 8.29987 5.30442 6.45658 -0.0101467 -0.00157428 0.00925604
62 2 8.55435 5.29119 7.38065 0.00554667 0.0115862 -0.0228589
63 2 7.34332 5.7631 6.46017 -0.00712934 -0.0180277 -0.00815845
64 1 5.46648 12.0884 7.58608 -0.00410773 -0.000223089 0.00620973
65 2 4.70539 11.5075 6.56154 -0.050198 -0.0105797 -0.0293579
66 2 3.62955 4.33575 6.97676 -0.0160507 0.00323348 -0.00136252
67 1 11.695 10.5783 7.45481 0.00328473 0.00265007 0.000733533
68 2 12.302 10.7074 6.70237 0.0225612 0.0130371 -0.0182463
69 2 12.0237 9.87808 7.99751 0.018027 0.0254304 0.0322733
70 1 10.2743 13.1539 4.03157 0.00150251 0.00402817 -0.000740467
71 2 9.90569 13.4732 3.15744 0.00359326 -0.00215297 0.00361199
72 2 9.61311 13.4565 4.65283 -0.00978284 0.00590864 -0.0117708
73 1 9.389 9.16791 7.04992 -0.0120254 -0.00545045 6.66137e-05
74 2 9.80866 8.31945 7.22836 0.00930569 -0.0094276 0.0121647
75 2 10.1222 9.81401 6.8871 0.0107661 0.0120891 0.00559785
76 1 12.1051 5.05665 9.92374 0.00365872 -0.00100173 -0.00335313
77 2 11.4958 5.77865 9.50426 -0.00909794 0.0166678 0.0033421
78 2 4.07561 5.39433 10.8853 -0.000370453 -0.0104623 -0.000347076
79 1 12.1588 8.73044 9.65662 0.00450206 0.00412175 0.00270204
80 2 12.5293 9.28905 10.3133 -0.0232522 -0.00119976 0.000621963
81 2 5.60298 10.6276 8.98651 0.00759651 -0.00849012 -0.0176952
82 1 7.53933 5.48375 11.6699 0.00225221 -0.000715027 0.00026491
83 2 7.59746 4.67404 2.37743 -0.0015841 0.000472985 -0.00269315
84 2 6.67595 5.95499 11.8991 0.00367961 0.0049976 -0.0315665
85 1 9.83263 4.18022 11.1637 -0.00391333 -0.00139134 -0.000132481
86 2 9.17476 4.84458 11.0048 -0.0207554 -0.0238171 0.00323754
87 2 11.4856 4.5239 10.4216 -0.0108632 0.0158417 -0.00635316
88 1 7.71694 12.5827 6.25628 -0.00228494 -0.00609324 0.00111699
89 2 6.4221 12.3376 7.05628 -0.0135008 0.000918633 0.00991055
90 2 7.97017 13.5453 6.2937 -0.00877874 0.00680688 0.0116894
91 1 5.92379 6.6605 6.47286 -0.0018743 -0.000457728 0.00918682
92 2 4.06527 7.78967 6.22253 0.00992963 -0.0143682 0.0114554
93 2 5.41754 6.09626 7.04086 0.00647232 0.00582473 0.00193004
94 1 4.17123 4.6824 7.71344 0.000443882 0.000974137 -0.00458116
95 2 3.44645 4.91656 8.41875 0.00601343 0.00906315 -0.00196101
96 2 5.68609 6.36659 5.53423 0.026651 0.0105142 -0.00813456
ITEM: TIMESTEP
4
ITEM: NUMBER OF ATOMS
96
ITEM: BOX BOUNDS pp pp pp
2.9236100000000000e+00 1.2773600000000000e+01
4.0306300000000004e+00 1.3880599999999999e+01
2.1372399999999998e+00 1.1987200000000000e+01
ITEM: ATOMS id type x y z vx vy vz
1 1 7.28129 12.7743 3.12324 0.00871103 -0.00202214 0.00131919
2 2 6.37776 12.3727 3.23526 -0.0133034 0.0117894 -0.0145338
3 2 9.41167 13.1607 11.0344 0.00135395 -0.00616018 -0.0142556
4 1 12.346 10.067 2.39299 0.000649833 -0.00246788 0.000362027
5 2 11.4837 10.3263 11.9238 -0.00729161 0.0164413 -0.0110513
6 2 12.2502 9.14804 2.86685 -0.00299027 0.0193166 -0.00278762
7 1 12.2328 7.69704 3.83329 0.00100587 0.00207157 -0.00350927
8 2 11.2556 7.53123 3.87555 -0.00714338 0.00398795 0.00702952
9 2 8.09868 8.37558 8.15403 -0.00342947 0.0102398 -0.00586223
10 1 7.43278 7.94798 8.72823 -0.00758935 -0.0013127 -0.00134178
11 2 6.7817 7.4917 8.12609 -0.0102503 0.0189761 -0.00474287
12 2 6.52472 9.38204 9.12244 0.0282332 -0.00962599 -0.00282073
13 1 5.94458 8.5656 2.40732 0.00441827 -0.0039852 6.13159e-05
14 2 5.93831 9.10781 11.4462 0.0224805 0.0178464 0.00762897
15 2 5.40237 7.84721 2.14383 -0.00714082 -0.0515382 0.0172708
16 1 9.52916 8.00814 11.1711 -0.00275603 0.00256024 0.00121675
17 2 9.45587 7.5793 2.19232 0.00710318 -0.0116133 0.0180411
18 2 8.78159 7.61474 10.7059 -0.0127702 0.0140724 0.00748496
19 1 4.77986 5.77291 11.4037 -0.00599502 0.0027167 -0.00492103
20 2 4.48453 5.60363 2.45766 -0.0223408 0.00586468 0.0200286
21 2 11.3333 8.56301 9.93402 -0.0131437 -0.00521732 0.00625691
22 1 9.68094 10.7751 11.5844 0.00224554 -0.00294616 -0.00195479
23 2 9.43381 10.7856 2.70002 -0.00583926 0.0168693 -0.0310474
24 2 9.46968 9.83571 11.3327 0.00345323 -0.0230248 -0.0103079
25 1 3.27838 8.30215 6.28647 -0.000284731 -0.000972136 0.00514004
26 2 3.49081 9.26781 6.13913 -0.0229294 0.00523966 0.000322783
27 2 3.79637 6.39755 4.08862 0.00566721 0.00163926 0.0121706
28 1 9.46224 7.2099 4.15352 -0.00114019 -0.00496624 0.0002568
29 2 8.85925 6.6215 4.67411 -0.0178173 0.00333377 -0.000757913
30 2 9.23934 8.08316 4.40584 -0.0224676 -0.0399479 0.00248291
31 1 3.83718 11.1011 5.75983 0.00784445 0.00256429 0.00148157
32 2 3.25309 12.5867 5.46162 -0.0017765 0.00364325 0.0149942
33 2 4.25211 11.1356 4.75968 0.003521 0.00798801 -0.00295284
34 1 7.75922 5.09109 9.08724 -0.00454124 0.00435449 -0.00150421
35 2 7.67074 4.15318 9.3668 0.0146405 0.0238726 -0.031641
36 2 7.40167 5.62078 9.7631 0.0165768 -0.0121026 0.0198737
37 1 7.95615 12.0814 10.1838 0.00486027 -9.79014e-05 0.00148846
38 2 9.13534 12.2902 8.81952 0.00349936 0.00764406 -0.0111328
39 2 8.47579 11.7563 10.9857 -0.0121505 -0.00529438 0.00583943
40 1 12.666 13.5471 5.33745 -0.00551309 0.00743421 -0.00381544
41 2 3.7801 4.88615 4.64029 -0.0157087 0.0185217 0.0223796
42 2 11.863 13.3959 4.8038 -0.00635589 -0.0130936 0.0125093
43 1 4.30245 5.67882 4.23549 0.00411036 -0.000134418 -0.00267777
44 2 12.5473 8.05548 4.70908 -0.0219031 0.0125085 0.0177024
45 2 7.57428 12.7771 4.04878 0.0211167 -0.0125509 0.00878455
46 1 9.60042 12.5123 8.0043 0.00384971 0.00190082 -0.00423941
47 2 8.47492 12.2013 6.81165 -0.00132822 -0.0125416 0.016952
48 2 10.2901 11.7831 7.97384 0.00496355 -0.0068555 -0.00997949
49 1 10.5376 6.79009 8.39652 0.00324989 0.00203958 -0.00401268
50 2 9.81181 6.20297 8.24775 -0.000393289 0.00673705 0.00176315
51 2 10.2299 7.33229 9.11968 0.00241982 0.0167866 0.00401873
52 1 9.15888 10.5131 4.32364 0.0113042 0.00365967 0.000945832
53 2 9.24665 10.1994 5.22154 -0.00198241 -0.0167516 -0.0147216
54 2 9.61349 11.3455 4.40353 0.0142923 0.0105329 0.0091103
55 1 4.87979 10.9565 3.28828 0.0058329 -0.00130756 -0.00341037
56 2 5.40299 10.0859 3.25798 -0.00282736 -0.0115374 0.00837786
57 2 3.9847 10.6731 2.98666 -0.0129619 -0.00185955 -0.0107225
58 1 6.09005 10.0899 9.65622 -0.0040849 -0.00742356 9.93204e-06
59 2 5.04095 13.0298 7.72571 -0.00951279 -0.000682947 0.00584222
60 2 7.33842 11.2705 9.94854 0.0230644 -0.0127354 -0.0138364
61 1 8.29469 5.30371 6.46114 -0.0105511 -0.00127549 0.00888412
62 2 8.557 5.29669 7.36992 0.00530235 0.0105719 -0.0189241
63 2 7.3412 5.75355 6.45615 -0.00173939 -0.0199277 -0.00768988
64 1 5.46449 12.0884 7.5892 -0.00386003 0.000181555 0.00626788
65 2 4.67789 11.5014 6.5443 -0.0590587 -0.0139083 -0.0392505
66 2 3.6217 4.33768 6.97612 -0.0152117 0.00450816 -0.00107812
67 1 11.6965 10.5797 7.45519 0.00283629 0.00291169 0.000762372
68 2 12.3139 10.7139 6.69283 0.0243821 0.0126613 -0.0187506
69 2 12.0333 9.88967 8.01438 0.0203488 0.0213521 0.0347902
70 1 10.275 13.156 4.03114 0.00134768 0.00411779 -0.000944039
71 2 9.90822 13.4718 3.16007 0.00646223 -0.0032794 0.00654092
72 2 9.60815 13.4596 4.64724 -0.00999657 0.00644001 -0.0105281
73 1 9.38297 9.16522 7.04991 -0.0119991 -0.00533502 -7.71779e-05
74 2 9.81383 8.31479 7.23452 0.010984 -0.00862976 0.0123505
75 2 10.1276 9.81945 6.89051 0.0101564 0.00901245 0.00819941
76 1 12.1069 5.05626 9.92199 0.00349932 -0.00053634 -0.00366723
77 2 11.4926 5.78608 9.50609 -0.00324566 0.0128011 0.00399281
78 2 4.07499 5.3891 10.8842 -0.00202621 -0.0104058 -0.0041636
79 1 12.1613 8.73253 9.65783 0.00526049 0.00422236 0.00211272