ITEM: TIMESTEP
0
ITEM: NUMBER OF ATOMS
96
ITEM: BOX BOUNDS pp pp pp
2.9236100000000000e+00 1.2773600000000000e+01
4.0306300000000004e+00 1.3880599999999999e+01
2.1372399999999998e+00 1.1987200000000000e+01
ITEM: ATOMS id type x y z vx vy vz
1 1 7.24836 12.7823 3.12133 -0.00939867 0.00285938 -0.000303173
2 2 6.44309 12.3335 3.25046 0.00706714 -0.0184632 -0.0066456
3 2 9.40034 13.2033 11.0706 -0.00843637 0.0156103 0.00559523
4 1 12.3455 10.0684 2.39442 0.000229514 -0.00165687 0.00101266
5 2 11.4549 10.2853 11.9543 -0.022588 -0.00560491 0.00569172
6 2 12.2643 9.15167 2.84443 0.00627604 0.0206213 -0.0146315
7 1 12.2299 7.69058 3.83915 -0.000257718 -0.00175763 -0.000376665
8 2 11.2777 7.51279 3.88391 0.000297358 -0.00727607 0.0133934
9 2 8.10529 8.33866 8.15659 0.00475803 -0.00775062 -0.00663687
10 1 7.45613 7.95144 8.73316 0.00577847 0.000652411 0.00189795
11 2 6.86914 7.45304 8.1569 0.0336991 -0.00687379 0.00891675
12 2 6.45832 9.37066 9.12623 -0.0101801 -0.0142721 -0.00184547
13 1 5.93158 8.58485 2.40737 -0.00328157 0.00682746 -0.000296637
14 2 5.89724 9.09195 11.4141 0.00276603 0.0136255 -0.00932693
15 2 5.35196 7.89246 11.94 -0.0349875 -0.0277976 -0.00810527
16 1 9.53863 7.9994 11.1638 0.00276901 -0.00219892 -0.00338321
17 2 9.43454 7.61447 2.16021 -0.0058407 0.00469339 0.00786
18 2 8.82356 7.57915 10.6735 0.0104087 -0.00645817 -0.0114932
19 1 4.80217 5.76461 11.4169 0.00658856 -0.00206516 0.00228069
20 2 4.55789 5.57368 2.47306 0.0172714 -0.0123851 0.0289403
21 2 11.2464 8.5511 9.97073 -0.0389579 -0.00570714 0.0218057
22 1 9.67419 10.7844 11.5922 -0.00160174 0.00262262 0.00298919
23 2 9.45949 10.7536 2.75794 0.00981169 -0.00181452 -0.00575599
24 2 9.45645 9.88479 11.3321 -0.00534182 0.000590475 -0.012546
25 1 3.27627 8.30891 6.26761 -0.00127035 0.00270325 -0.00554158
26 2 3.58496 9.22381 6.14464 0.0275754 -0.0120847 0.0026278
27 2 3.67275 6.45226 4.04685 -0.0490377 0.0103353 -0.00749625
28 1 9.46639 7.22687 4.15215 0.0015475 0.00589622 -0.000730862
29 2 8.94398 6.65659 4.68046 0.0240376 0.0193828 0.0090427
30 2 9.29587 8.19202 4.41252 0.0112558 0.00766564 0.00361559
31 1 3.81869 11.0968 5.75282 -0.00266628 8.08747e-05 -0.00135838
32 2 3.24922 12.5767 5.41813 -0.00352896 -0.00584292 -0.00962436
33 2 4.23377 11.0949 4.88798 -0.00296762 -0.0148857 0.0547933
34 1 7.77647 5.06995 9.08966 0.00479968 -0.00752135 0.000773594
35 2 7.63029 4.14472 9.46958 -0.00668962 0.0245198 0.0229454
36 2 7.32945 5.66764 9.74223 -0.0178201 0.00672108 -0.00211421
37 1 7.93626 12.0779 10.1762 -0.00602233 -0.00130564 -0.0027214
38 2 9.08169 12.2844 8.88298 -0.0208096 0.00459377 0.0160354
39 2 8.49447 11.7599 10.9579 -0.000293589 -0.00426173 -0.00840185
40 1 12.6868 13.5194 5.35116 0.00590485 -0.00797056 0.00365266
41 2 3.8133 4.86459 4.55051 0.000493864 0.00356833 -0.0266071
42 2 11.8764 13.4461 4.75957 0.00653397 0.0140923 -0.00836288
43 1 4.29627 5.67238 4.24685 -0.000310755 -0.00223828 0.00334032
44 2 12.602 8.01813 4.70194 0.00812149 -0.00740649 0.0154847
45 2 7.52205 12.8189 4.02132 -0.00278896 0.0132961 0.00253008
46 1 9.58998 12.5021 8.01964 -0.00286751 -0.00358991 0.00496601
47 2 8.49045 12.1858 6.7916 0.00559426 -0.0156989 0.00426133
48 2 10.2753 11.8335 7.97596 0.000852277 0.0154166 -0.00706205
49 1 10.5272 6.78118 8.40908 -0.00300104 -0.00327184 0.0029834
50 2 9.79314 6.17251 8.24656 -0.00654835 -0.00748595 0.00161566
51 2 10.2043 7.29099 9.13468 -0.0121039 -0.00566213 0.013917
52 1 9.11935 10.4972 4.32586 -0.0110045 -0.00510878 0.00273141
53 2 9.22984 10.2228 5.27632 -0.0121555 -0.000506436 0.00854068
54 2 9.57855 11.3681 4.36247 -0.00935297 0.0171495 -0.012849
55 1 4.86356 10.9603 3.3025 -0.00343676 0.00111442 0.00458789
56 2 5.41488 10.1445 3.23004 0.00517067 0.0180143 -0.00823414
57 2 3.97583 10.686 2.98717 -0.017351 0.00493191 -0.00917063
58 1 6.10292 10.1196 9.65599 0.00326689 0.00927745 0.000216979
59 2 5.06515 13.0034 7.69837 0.00230431 -0.0110132 -0.00962411
60 2 7.27854 11.3631 10.0074 -0.0163534 0.0305065 0.0170353
61 1 8.32655 5.31228 6.42925 0.00789379 0.0036197 -0.00808648
62 2 8.52916 5.24338 7.43738 -0.0113172 -0.0209756 0.00473937
63 2 7.41588 5.79536 6.47681 0.037 0.00443513 -0.000554169
64 1 5.48073 12.0911 7.56794 0.00526132 0.00116382 -0.00596348
65 2 4.75838 11.5105 6.55864 -0.0168844 -0.00787475 -0.029316
66 2 3.67622 4.33377 6.97587 0.0124519 0.000677888 -0.00432176
67 1 11.6804 10.5723 7.45475 -0.00621087 -0.00172529 0.00109431
68 2 12.2736 10.6746 6.71784 0.00489688 -0.00746127 -0.0110394
69 2 11.9864 9.76374 7.92952 -0.0100668 -0.0451713 -0.0153394
70 1 10.2688 13.1425 4.03201 -0.00194957 -0.00368594 -0.000165352
71 2 9.9183 13.4701 3.17791 0.0096374 -0.00267747 0.0150206
72 2 9.63857 13.4452 4.69459 0.00703757 -0.00137671 0.0142601
73 1 9.42202 9.1847 7.04852 0.0093283 0.00546774 -0.000815944
74 2 9.80814 8.3312 7.19865 0.0102547 -0.00555533 -0.00673276
75 2 10.1196 9.78208 6.88371 0.0172833 -0.00113408 0.000777829
76 1 12.0945 5.06182 9.93209 -0.00289789 0.00165201 0.00274743
77 2 11.5492 5.71281 9.49376 0.0172152 -0.0201401 -0.00683471
78 2 4.06563 5.42793 10.8607 -0.00396512 0.0132845 -0.0113799
79 1 12.1517 8.71992 9.64524 -0.00109177 -0.00271091 -0.0040197
80 2 12.5929 9.29591 10.3295 0.0112423 -0.00439839 0.00340095
81 2 5.5853 10.6552 9.05106 -0.00550834 0.010805 0.0214594
82 1 7.53057 5.48795 11.6712 -0.00336637 0.00191917 0.0010936
83 2 7.5806 4.68336 2.37163 -0.00961547 0.0040375 -0.00640472
84 2 6.70035 5.89979 11.9742 0.0148713 -0.0258449 0.0177439
85 1 9.84791 4.18357 11.1657 0.00610119 0.00142282 0.00114084
86 2 9.20549 4.91811 10.9861 0.00426639 0.0180853 -0.0075083
87 2 11.5035 4.46311 10.452 0.00176935 -0.0195123 0.0101824
88 1 7.72475 12.5988 6.25041 0.00303351 0.00478242 -0.00275965
89 2 6.43722 12.3252 7.04222 -0.000942751 -0.0060668 -0.000670125
90 2 7.9716 13.6033 6.25316 -0.00672228 0.0386102 -0.0135281
91 1 5.93043 6.66124 6.44278 0.00207715 -0.000412014 -0.0101507
92 2 4.0821 7.81571 6.19205 0.0196243 -0.000201051 -0.00818632
93 2 5.38418 6.06587 7.04173 -0.00884272 -0.00704457 -6.12062e-05
94 1 4.16702 4.67961 7.72977 -0.00176104 -0.000902826 0.00604433
95 2 3.47841 4.87059 8.39175 0.019996 -0.0192379 -0.0138172
96 2 5.60099 6.34438 5.58771 -0.0284932 -0.00388104 0.0195161
ITEM: TIMESTEP
1
ITEM: NUMBER OF ATOMS
96
ITEM: BOX BOUNDS pp pp pp
2.9236100000000000e+00 1.2773600000000000e+01
4.0306300000000004e+00 1.3880599999999999e+01
2.1372399999999998e+00 1.1987200000000000e+01
ITEM: ATOMS id type x y z vx vy vz
1 1 7.2437 12.7838 3.12117 -0.00921969 0.00310543 -0.000297372
2 2 6.44488 12.3233 3.24636 0.000325333 -0.0223943 -0.00953178
3 2 9.39557 13.2111 11.073 -0.0106853 0.0154674 0.00410071
4 1 12.3456 10.0675 2.39494 0.000167733 -0.00203968 0.00101337
5 2 11.443 10.2829 11.957 -0.0243817 -0.00387923 0.00526619
6 2 12.2676 9.16291 2.83679 0.00708472 0.0234894 -0.0155165
7 1 12.2298 7.6897 3.83883 -4.2589e-07 -0.00177218 -0.000872351
8 2 11.2773 7.50897 3.89142 -0.0018513 -0.00802042 0.0166008
9 2 8.10813 8.33517 8.15269 0.0066397 -0.00614554 -0.00881041
10 1 7.45897 7.95176 8.73417 0.0056112 0.000640372 0.00216837
11 2 6.88602 7.44948 8.16098 0.0332444 -0.00779602 0.00709233
12 2 6.45367 9.36313 9.12519 -0.00865664 -0.0152916 -0.00208064
13 1 5.9299 8.5883 2.40712 -0.00353729 0.00688038 -0.000770827
14 2 5.89943 9.09907 11.4103 0.00587664 0.0142833 -0.00526788
15 2 5.33442 7.87766 11.9368 -0.0337845 -0.0296494 -0.00423159
16 1 9.54003 7.99833 11.162 0.00281117 -0.00209798 -0.00377517
17 2 9.43159 7.61637 2.16546 -0.00595679 0.00309091 0.0126254
18 2 8.82862 7.57617 10.6676 0.00984148 -0.00546622 -0.0118998
19 1 4.80545 5.76359 11.4179 0.00650451 -0.00203196 0.00195341
20 2 4.56624 5.56726 2.48863 0.0162205 -0.0131207 0.0322502
21 2 11.228 8.54854 9.98183 -0.0332102 -0.00427644 0.0220062
22 1 9.67342 10.7857 11.5938 -0.00148481 0.00261158 0.0031823
23 2 9.46454 10.7531 2.75338 0.0102519 -9.74684e-05 -0.012006
24 2 9.45364 9.88409 11.325 -0.00584369 -0.00310125 -0.01574
25 1 3.27563 8.31029 6.26483 -0.00123321 0.00277741 -0.00558112
26 2 3.59857 9.21822 6.146 0.0266851 -0.0101477 0.00279269
27 2 3.64846 6.45557 4.04372 -0.0472849 0.00219419 -0.00486891
28 1 9.46722 7.22995 4.15174 0.00177638 0.00644868 -0.000942182
29 2 8.95551 6.66651 4.68596 0.0217636 0.0199024 0.0132986
30 2 9.3012 8.19367 4.41434 0.0100384 -0.000883221 0.00368279
31 1 3.81752 11.0969 5.7523 -0.00203347 0.000419446 -0.00062865
32 2 3.24722 12.5735 5.41347 -0.00457272 -0.00662979 -0.00910887
33 2 4.23303 11.0872 4.91494 0.000679195 -0.0159279 0.0509406
34 1 7.77883 5.06613 9.0901 0.00460479 -0.00769585 0.00101964
35 2 7.62737 4.1587 9.48045 -0.00497617 0.0305341 0.0206161
36 2 7.32122 5.67006 9.74076 -0.014802 0.00286064 -0.00418463
37 1 7.93326 12.0773 10.1748 -0.00593091 -0.00111231 -0.00286002
38 2 9.07139 12.2871 8.89024 -0.0199952 0.00598663 0.0126384
39 2 8.49405 11.7574 10.9538 -0.00130719 -0.0058486 -0.00790605
40 1 12.6897 13.5154 5.35294 0.00575809 -0.00785954 0.00347532
41 2 3.81276 4.86676 4.53731 -0.00271726 0.00474087 -0.0260562
42 2 11.8802 13.453 4.75599 0.0088488 0.0134185 -0.00579794
43 1 4.29615 5.67135 4.24848 -0.000246981 -0.00182262 0.0031574
44 2 12.6054 8.01465 4.71077 0.00535986 -0.006608 0.0194316
45 2 7.52175 12.8257 4.02369 0.00118976 0.0139634 0.00645384
46 1 9.5885 12.5003 8.02219 -0.00309233 -0.00364475 0.0052258
47 2 8.49297 12.1779 6.79415 0.0040815 -0.014938 0.00555199
48 2 10.2764 11.8408 7.97208 0.00343181 0.0135365 -0.00821828
49 1 10.5257 6.77949 8.41053 -0.00315421 -0.00347977 0.0028478
50 2 9.7901 6.16908 8.24754 -0.00542697 -0.00611414 0.00231045
51 2 10.198 7.28847 9.14214 -0.0127276 -0.00469515 0.0154921
52 1 9.11389 10.4946 4.3274 -0.0107958 -0.00508029 0.00342012
53 2 9.22324 10.2222 5.27963 -0.0142067 -0.0015891 0.0045705
54 2 9.57354 11.3767 4.35607 -0.0110445 0.0165453 -0.0126713
55 1 4.8619 10.9609 3.30482 -0.00321929 0.00117798 0.00467123
56 2 5.4176 10.1533 3.22582 0.00564551 0.0170888 -0.00872391
57 2 3.96658 10.6886 2.98215 -0.0189006 0.00552694 -0.0105946
58 1 6.10453 10.1243 9.65613 0.0032075 0.0092886 0.000362407
59 2 5.06592 12.9979 7.69347 0.000841861 -0.0109268 -0.00988608
60 2 7.26993 11.3779 10.0157 -0.0185013 0.0282545 0.0160746
61 1 8.33045 5.31416 6.42534 0.00775325 0.00387656 -0.00754616
62 2 8.52336 5.23244 7.4381 -0.0116338 -0.0227636 -0.00184507
63 2 7.43485 5.79727 6.47578 0.0379898 0.00359661 -0.00371991
64 1 5.48339 12.0917 7.56496 0.00537992 0.00112684 -0.00597713
65 2 4.74703 11.5059 6.54186 -0.0282845 -0.010624 -0.0372552
66 2 3.68202 4.33414 6.97323 0.0106851 0.000790552 -0.00625056
67 1 11.6772 10.5714 7.4554 -0.00645072 -0.00187746 0.0015049
68 2 12.277 10.6712 6.7112 0.00799002 -0.00642661 -0.0147249
69 2 11.9812 9.7413 7.92211 -0.0108887 -0.0436404 -0.0147079
70 1 10.2678 13.1407 4.03194 -0.00191065 -0.00373248 -8.01699e-05
71 2 9.92331 13.4688 3.18573 0.010075 -0.00220244 0.0157268
72 2 9.64198 13.4447 4.70159 0.00663618 -0.000506625 0.013593
73 1 9.42652 9.1874 7.04809 0.0087076 0.00530854 -0.000921932
74 2 9.81408 8.3276 7.19557 0.0132367 -0.00842502 -0.00563118
75 2 10.1301 9.7827 6.88413 0.0246134 0.00356361 0.000953757
76 1 12.0931 5.06258 9.93351 -0.00251288 0.00131852 0.0029632
77 2 11.5571 5.70345 9.48978 0.0136331 -0.0169088 -0.00935122
78 2 4.06389 5.43486 10.8553 -0.00270415 0.0145298 -0.00979991
79 1 12.1512 8.71864 9.64328 -0.00109067 -0.00242458 -0.00377769
80 2 12.5972 9.29269 10.3305 0.00582958 -0.00865724 0.000449483
81 2 5.58248 10.6608 9.06147 -0.00581847 0.011571 0.0198716
82 1 7.52888 5.48894 11.6718 -0.00335908 0.00201632 0.00125438
83 2 7.57576 4.68513 2.36812 -0.00942403 0.00265659 -0.00751906
84 2 6.70771 5.88687 11.9825 0.0137443 -0.0251129 0.0155887
85 1 9.85103 4.18435 11.1663 0.00634366 0.00173913 0.00126151
86 2 9.20754 4.92608 10.9824 0.00430487 0.0134222 -0.00723058
87 2 11.5041 4.45386 10.4568 0.000890362 -0.0170522 0.00856558
88 1 7.72632 12.6012 6.24898 0.00325417 0.00465667 -0.00295947
89 2 6.43643 12.3221 7.04212 -0.0021176 -0.00632821 0.000186443
90 2 7.96774 13.6232 6.24658 -0.00862227 0.0398059 -0.0125809
91 1 5.93142 6.66095 6.43775 0.00184927 -0.000763395 -0.00990986
92 2 4.09263 7.81484 6.1882 0.0216815 -0.00304268 -0.00714125
93 2 5.38049 6.06316 7.0415 -0.00550637 -0.00341191 -0.000933806
94 1 4.16617 4.67916 7.73281 -0.0015886 -0.000926272 0.00605019
95 2 3.4884 4.86088 8.38512 0.0190338 -0.0193584 -0.0118907
96 2 5.58683 6.34274 5.59692 -0.0280862 -0.00267136 0.0166778
ITEM: TIMESTEP
2
ITEM: NUMBER OF ATOMS
96
ITEM: BOX BOUNDS pp pp pp
2.9236100000000000e+00 1.2773600000000000e+01
4.0306300000000004e+00 1.3880599999999999e+01
2.1372399999999998e+00 1.1987200000000000e+01
ITEM: ATOMS id type x y z vx vy vz
1 1 7.23914 12.7854 3.12103 -0.00904392 0.00333701 -0.000237459
2 2 6.44342 12.3111 3.24093 -0.00553212 -0.0259717 -0.0119448
3 2 9.38965 13.2188 11.0747 -0.0129792 0.0149666 0.00261885
4 1 12.3457 10.0664 2.39543 2.29123e-05 -0.00228424 0.000922526
5 2 11.4305 10.2814 11.9596 -0.0248654 -0.0023038 0.00515983
6 2 12.2714 9.17516 2.82891 0.0078617 0.024537 -0.0154891
7 1 12.2299 7.68881 3.83828 0.0002624 -0.00179966 -0.00128517
8 2 11.2758 7.50477 3.90051 -0.00354232 -0.00875289 0.0196321
9 2 8.11193 8.33251 8.14778 0.00853213 -0.00444485 -0.0106174
10 1 7.46174 7.95208 8.73533 0.00549713 0.00068173 0.0024556
11 2 6.90238 7.44524 8.16399 0.0317601 -0.00952359 0.00469017
12 2 6.44966 9.35537 9.12415 -0.00762434 -0.0151773 -0.00184585
13 1 5.92804 8.59173 2.4066 -0.00393221 0.00679664 -0.00135433
14 2 5.90312 9.10623 11.4088 0.00877248 0.014103 -0.000513659
15 2 5.31818 7.86281 11.9358 -0.0301499 -0.0284243 0.000499744
16 1 9.54144 7.9973 11.16 0.00285046 -0.00201856 -0.00410231
17 2 9.42858 7.61756 2.17284 -0.00606266 0.00193 0.0161657
18 2 8.8334 7.57368 10.6616 0.0093028 -0.00448484 -0.0120743
19 1 4.80867 5.76258 11.4189 0.00636002 -0.00202496 0.0017306
20 2 4.57411 5.56056 2.50531 0.0153443 -0.0134683 0.0333407
21 2 11.2132 8.54682 9.99274 -0.0248166 -0.0024019 0.0211362
22 1 9.67271 10.787 11.5954 -0.00134948 0.00255585 0.00329627
23 2 9.46974 10.7535 2.74593 0.0103888 0.00141399 -0.0171382
24 2 9.45061 9.88169 11.3164 -0.00620428 -0.00609611 -0.0184434
25 1 3.27504 8.31169 6.26203 -0.00107171 0.00278821 -0.0056259
26 2 3.61165 9.21366 6.14743 0.0254197 -0.00804695 0.00295608
27 2 3.62547 6.45445 4.04198 -0.0440223 -0.00699552 -0.00201405
28 1 9.46817 7.23332 4.15121 0.0020382 0.00700878 -0.00119685
29 2 8.96574 6.67649 4.69376 0.0189828 0.0196789 0.0181096
30 2 9.30591 8.19114 4.4162 0.00877889 -0.00879126 0.00382189
31 1 3.81666 11.0972 5.75219 -0.00147712 0.000729112 0.000296278
32 2 3.24465 12.5701 5.40902 -0.00585155 -0.00697522 -0.0088192
33 2 4.23445 11.079 4.93892 0.0056147 -0.0172355 0.0429825
34 1 7.78107 5.06225 9.09068 0.00437939 -0.00773722 0.00128793
35 2 7.62531 4.17525 9.4902 -0.00329875 0.0346024 0.0185741
36 2 7.31465 5.6705 9.73805 -0.0113189 -0.0010515 -0.00694407
37 1 7.93033 12.0768 10.1733 -0.00578481 -0.000842753 -0.0029897
38 2 9.06169 12.2904 8.89562 -0.0184339 0.00705405 0.008618
39 2 8.49316 11.7541 10.95 -0.0021824 -0.00736547 -0.00731587
40 1 12.6926 13.5115 5.35464 0.00558664 -0.00771296 0.00328163
41 2 3.81058 4.86933 4.52445 -0.00595781 0.00511048 -0.0252113
42 2 11.8852 13.4595 4.75377 0.0113779 0.0125246 -0.00299717
43 1 4.29602 5.67056 4.25001 -0.000292032 -0.00127935 0.002902
44 2 12.6074 8.01152 4.72137 0.002343 -0.00603725 0.0224471
45 2 7.52324 12.8329 4.02777 0.00421679 0.0143122 0.00916165
46 1 9.58689 12.4985 8.02487 -0.00338081 -0.0036582 0.00548364
47 2 8.49453 12.1709 6.79715 0.00176722 -0.0124795 0.00610539
48 2 10.2787 11.847 7.96774 0.00605859 0.0111671 -0.00888221
49 1 10.524 6.7777 8.41193 -0.00335768 -0.00365994 0.002758
50 2 9.78771 6.1664 8.24887 -0.00410303 -0.00463723 0.0029358
51 2 10.1916 7.28629 9.15017 -0.0128763 -0.00429452 0.0162093
52 1 9.10855 10.4921 4.32928 -0.0105509 -0.00497519 0.00409371
53 2 9.21563 10.2212 5.28089 -0.0161255 -0.0024024 0.000464526
54 2 9.56751 11.3846 4.3498 -0.0133737 0.0145211 -0.0123238
55 1 4.86034 10.9615 3.30717 -0.00307251 0.00125477 0.0047267
56 2 5.42053 10.1616 3.22132 0.0059443 0.0157725 -0.00938407
57 2 3.95693 10.6915 2.97658 -0.0189339 0.00627638 -0.011413
58 1 6.10613 10.1289 9.65635 0.0031769 0.00920636 0.000510357
59 2 5.06599 12.9925 7.68848 -0.000463697 -0.010687 -0.00999218
60 2 7.26004 11.3914 10.0235 -0.0213866 0.0250934 0.0148413
61 1 8.3343 5.31616 6.4217 0.00771993 0.00408661 -0.00699877
62 2 8.51753 5.22062 7.43553 -0.0113991 -0.0244603 -0.00814931
63 2 7.45387 5.79896 6.47309 0.0371983 0.00359219 -0.0071553
64 1 5.48611 12.0922 7.56196 0.00547678 0.00106485 -0.00601299
65 2 4.7301 11.4999 6.52138 -0.0390183 -0.013178 -0.043872
66 2 3.68691 4.33456 6.96962 0.00884117 0.000908206 -0.00810254
67 1 11.6739 10.5704 7.45625 -0.00657345 -0.0021321 0.00186925
68 2 12.2816 10.6682 6.70312 0.00959255 -0.00567514 -0.0166631
69 2 11.9755 9.7201 7.91481 -0.0122709 -0.0402919 -0.014852
70 1 10.2669 13.1388 4.03193 -0.00183972 -0.00381681 9.89153e-05
71 2 9.92837 13.4679 3.19364 0.00987911 -0.00121562 0.0153275
72 2 9.64521 13.4447 4.70818 0.0063197 0.000357947 0.0126119
73 1 9.43073 9.19001 7.0476 0.00816509 0.00511209 -0.00103197
74 2 9.82138 8.32277 7.19302 0.015616 -0.0103244 -0.00463739
75 2 10.1442 9.78564 6.88466 0.0313386 0.00790068 0.00127034
76 1 12.092 5.06314 9.93505 -0.00208719 0.000896072 0.00325241
77 2 11.5628 5.6959 9.48441 0.00912189 -0.0130397 -0.0122748
78 2 4.06293 5.44246 10.8509 -0.000953833 0.0158902 -0.00721907
79 1 12.1506 8.7175 9.64146 -0.00124647 -0.0021534 -0.00345467
80 2 12.5987 9.28725 10.3299 0.000228173 -0.0130891 -0.00281874
81 2 5.57948 10.6668 9.07093 -0.00620248 0.0123153 0.0177429
82 1 7.52721 5.48997 11.6725 -0.00327462 0.00207979 0.00138446
83 2 7.57118 4.68602 2.36411 -0.00860619 0.00051744 -0.00844025
84 2 6.71409 5.87468 2.13983 0.0110108 -0.0229777 0.013738
85 1 9.85425 4.18531 11.167 0.00654606 0.00211113 0.00136491
86 2 9.20979 4.93153 10.9789 0.00502139 0.00818784 -0.00672864
87 2 11.5044 4.44606 10.4606 0.000219463 -0.0138047 0.00636456
88 1 7.728 12.6035 6.24745 0.00350843 0.00457352 -0.00312198
89 2 6.4351 12.3189 7.04241 -0.00314522 -0.00649347 0.000917649
90 2 7.96298 13.6431 6.24058 -0.0103412 0.0383729 -0.0112643
91 1 5.93228 6.66048 6.43287 0.00156513 -0.00113808 -0.00958349
92 2 4.10378 7.81267 6.18491 0.022074 -0.00535092 -0.00591866
93 2 5.37867 6.06246 7.0408 -0.00143849 0.000878843 -0.00185994
94 1 4.16543 4.67868 7.73582 -0.00130181 -0.000972568 0.00594846
95 2 3.49744 4.85123 8.37986 0.0162581 -0.0190202 -0.0083834
96 2 5.5729 6.34171 5.60439 -0.0275614 -0.00146377 0.0126565
ITEM: TIMESTEP
3
ITEM: NUMBER OF ATOMS
96
ITEM: BOX BOUNDS pp pp pp
2.9236100000000000e+00 1.2773600000000000e+01
4.0306300000000004e+00 1.3880599999999999e+01
2.1372399999999998e+00 1.1987200000000000e+01
ITEM: ATOMS id type x y z vx vy vz
1 1 7.23466 12.7871 3.12094 -0.00889961 0.00353547 -0.000106096
2 2 6.43934 12.2973 3.23442 -0.0099425 -0.0288286 -0.0139019
3 2 9.38259 13.2261 11.0756 -0.015178 0.0141901 0.00118106
4 1 12.3456 10.0652 2.39586 -0.00020303 -0.00237873 0.000738528
5 2 11.4181 10.2806 11.9622 -0.0240247 -0.000909733 0.00537941
6 2 12.2755 9.18745 2.8213 0.00857804 0.023581 -0.0144669
7 1 12.2301 7.6879 3.83754 0.000514125 -0.0018395 -0.00160247
8 2 11.2737 7.50021 3.91106 -0.00455935 -0.00943155 0.0223823
9 2 8.11666 8.33072 8.14208 0.0102308 -0.0027541 -0.0118791
10 1 7.46447 7.95244 8.73663 0.00543664 0.000775703 0.00273521
11 2 6.91778 7.43996 8.16567 0.0294618 -0.0118981 0.00190886
12 2 6.44605 9.34795 9.12335 -0.00704649 -0.0139329 -0.00113325
13 1 5.92596 8.59509 2.40577 -0.00442787 0.00659906 -0.00199267
14 2 5.9082 9.11317 11.4098 0.0114361 0.0134307 0.00439435
15 2 5.30427 7.84923 11.9373 -0.0246761 -0.0248374 0.00576977
16 1 9.54288 7.99631 11.1579 0.00288264 -0.00196655 -0.00434538
17 2 9.42553 7.6183 2.18163 -0.00611549 0.00131953 0.0181702
18 2 8.83792 7.57169 10.6556 0.0087986 -0.00351137 -0.011995
19 1 4.81181 5.76156 11.4197 0.00616624 -0.00204154 0.00162468
20 2 4.58159 5.55379 2.52197 0.0146445 -0.0133736 0.0322183
21 2 11.2032 8.54613 10.003 -0.0145474 -0.000273322 0.0193625
22 1 9.67207 10.7883 11.597 -0.00119472 0.00244483 0.00330481
23 2 9.47493 10.7546 2.73625 0.0101592 0.00269383 -0.0208161
24 2 9.44744 9.87799 11.3065 -0.00636928 -0.00820987 -0.020531
25 1 3.27456 8.31308 6.2592 -0.000785298 0.00274191 -0.00567472
26 2 3.62399 9.21017 6.14895 0.0237911 -0.00598875 0.0031248
27 2 3.60444 6.44858 4.04171 -0.0396187 -0.0164843 0.000905728
28 1 9.46925 7.23696 4.15054 0.00231813 0.00753183 -0.0014843
29 2 8.97449 6.68619 4.70407 0.0159615 0.0188906 0.0232122
30 2 9.30998 8.18488 4.41816 0.00744692 -0.0155273 0.00412335
31 1 3.81605 11.0977 5.75259 -0.000998357 0.0010013 0.00136464
32 2 3.24137 12.5666 5.40465 -0.00737 -0.00677539 -0.00878653
33 2 4.23864 11.07 4.95792 0.0115872 -0.0189304 0.0312549
34 1 7.78321 5.05839 9.09139 0.00414094 -0.0076396 0.00154711
35 2 7.62407 4.1933 9.49902 -0.00173206 0.0362916 0.0170396
36 2 7.3099 5.66901 9.73381 -0.0075947 -0.00467306 -0.0101173
37 1 7.92748 12.0764 10.1718 -0.00559843 -0.000521652 -0.00310821
38 2 9.05295 12.2941 8.89886 -0.0162543 0.00774434 0.00422499
39 2 8.49187 11.75 10.9465 -0.00300111 -0.0087783 -0.00673387
40 1 12.6953 13.5077 5.35623 0.00540446 -0.00753264 0.00308384
41 2 3.8068 4.87187 4.5121 -0.00908117 0.00464717 -0.0240896
42 2 11.8916 13.4655 4.75299 0.01388 0.0114325 -0.000139245
43 1 4.29585 5.67007 4.25139 -0.000430603 -0.000651846 0.00258432
44 2 12.6077 8.00861 4.73322 -0.000875249 -0.00572759 0.0243863
45 2 7.52597 12.8401 4.03285 0.00615363 0.0142685 0.0104002
46 1 9.58512 12.4966 8.02767 -0.00370778 -0.00363948 0.00572333
47 2 8.49474 12.1654 6.80025 -0.00121167 -0.00852326 0.00599723
48 2 10.2824 11.852 7.9632 0.00850849 0.0085313 -0.00904047
49 1 10.5223 6.77583 8.41329 -0.00360098 -0.00380552 0.00271948
50 2 9.786 6.16444 8.25048 -0.00273007 -0.00318047 0.00345841
51 2 10.1852 7.28418 9.15834 -0.0125366 -0.0044633 0.0160399
52 1 9.10334 10.4897 4.33149 -0.0102817 -0.00480384 0.00472915
53 2 9.20711 10.2198 5.2801 -0.0178605 -0.00301167 -0.00345191
54 2 9.56016 11.3912 4.34375 -0.0162029 0.011276 -0.0117922
55 1 4.85883 10.9621 3.30954 -0.00299235 0.00134343 0.00475521
56 2 5.42355 10.1691 3.21644 0.00601599 0.0141329 -0.0101923
57 2 3.94765 10.6949 2.97074 -0.0174872 0.00715772 -0.01165
58 1 6.10771 10.1335 9.65664 0.00317117 0.00903877 0.000652193
59 2 5.06546 12.9872 7.68348 -0.00153778 -0.0103891 -0.00992998
60 2 7.24854 11.403 10.0306 -0.0247733 0.0213315 0.0134249
61 1 8.33817 5.31825 6.41834 0.00779525 0.00424836 -0.00647529
62 2 8.51197 5.20798 7.42995 -0.0106326 -0.0260309 -0.0138099
63 2 7.47204 5.80086 6.46863 0.0346518 0.0044694 -0.0107271
64 1 5.48887 12.0927 7.55894 0.00555019 0.000987994 -0.00607457
65 2 4.70801 11.4927 6.49799 -0.0486518 -0.0153814 -0.0487035
66 2 3.69086 4.33505 6.96513 0.00704532 0.00112014 -0.00967048
67 1 11.6706 10.5693 7.45727 -0.00658453 -0.00247623 0.002166
68 2 12.2866 10.6655 6.69454 0.00953057 -0.00526267 -0.0166571
69 2 11.969 9.70101 7.90726 -0.0140691 -0.0353207 -0.0156284
70 1 10.266 13.1368 4.03204 -0.00174167 -0.00393595 0.000367107
71 2 9.93319 13.4676 3.20106 0.00910082 0.000259705 0.013866
72 2 9.6483 13.4451 4.71421 0.00610311 0.00120166 0.0113374
73 1 9.43469 9.19251 7.04705 0.00774202 0.00488877 -0.0011504
74 2 9.8297 8.31728 7.19093 0.0172761 -0.010994 -0.00378386
75 2 10.1615 9.7906 6.88541 0.0369527 0.0114657 0.00186119
76 1 12.0911 5.06347 9.93676 -0.0016405 0.000419746 0.00358978
77 2 11.5662 5.69041 9.4775 0.00405969 -0.00890769 -0.0153858
78 2 4.06294 5.45075 10.8481 0.00111766 0.017271 -0.0038266
79 1 12.1499 8.71648 9.63982 -0.00153257 -0.00190914 -0.00308491
80 2 12.5974 9.2796 10.3277 -0.00519273 -0.0173371 -0.00603972
81 2 5.57628 10.6731 9.07921 -0.00658009 0.0129613 0.015174
82 1 7.5256 5.49102 11.6732 -0.00312104 0.00211085 0.00148891
83 2 7.56715 4.68565 2.35968 -0.00722351 -0.00227827 -0.00921028
84 2 6.71872 5.86389 2.14628 0.00683313 -0.019591 0.0121999
85 1 9.85757 4.18646 11.1677 0.00670986 0.00251229 0.00145287
86 2 9.21256 4.93427 10.9757 0.00624624 0.00272531 -0.00606187
87 2 11.5044 4.44006 10.4631 -0.000296667 -0.00992634 0.0036963
88 1 7.72983 12.6057 6.24585 0.00378868 0.00453302 -0.00325211
89 2 6.43328 12.3156 7.04304 -0.0041624 -0.00659515 0.00160017
90 2 7.9574 13.6616 6.23532 -0.0119067 0.0344599 -0.00965707
91 1 5.93298 6.65981 6.42817 0.00124065 -0.00151959 -0.00919978
92 2 4.1147 7.80949 6.18228 0.0207758 -0.00702848 -0.00453715
93 2 5.37905 6.06403 7.03964 0.00309837 0.00552829 -0.00268107
94 1 4.16487 4.67818 7.73876 -0.000922945 -0.00104221 0.00574084
95 2 3.50466 4.84186 8.37673 0.0119022 -0.0183271 -0.00352074
96 2 5.55927 6.34128 5.60958 -0.0269225 -0.000241731 0.00773888
ITEM: TIMESTEP
4
ITEM: NUMBER OF ATOMS
96
ITEM: BOX BOUNDS pp pp pp
2.9236100000000000e+00 1.2773600000000000e+01
4.0306300000000004e+00 1.3880599999999999e+01
2.1372399999999998e+00 1.1987200000000000e+01
ITEM: ATOMS id type x y z vx vy vz
1 1 7.23024 12.7889 3.12093 -0.00880553 0.00368848 9.81364e-05
2 2 6.43347 12.2823 3.22703 -0.0126787 -0.0307522 -0.0154811
3 2 9.37448 13.233 11.0759 -0.0171314 0.0132344 -0.000180815
4 1 12.3455 10.064 2.39617 -0.000502595 -0.00232269 0.000466574
5 2 11.4065 10.2805 11.9649 -0.0219334 0.000281974 0.00590753
6 2 12.28 9.19874 2.81445 0.00921152 0.0205978 -0.0124441
7 1 12.2304 7.68697 3.83668 0.000737714 -0.00189031 -0.00181602
8 2 11.2713 7.49534 3.92289 -0.00475708 -0.0100186 0.0247366
9 2 8.12216 8.32976 8.1359 0.011547 -0.00117149 -0.0124437
10 1 7.46718 7.95286 8.73806 0.00542509 0.000915105 0.00298016
11 2 6.93185 7.43335 8.1659 0.0266382 -0.01468 -0.000990852
12 2 6.44262 9.34144 9.12302 -0.00685117 -0.011645 1.42747e-05
13 1 5.92361 8.59833 2.40461 -0.00498571 0.00631117 -0.00263417
14 2 5.91455 9.11966 11.4132 0.0137575 0.0123735 0.00905308
15 2 5.2935 7.83797 11.9415 -0.0178644 -0.0193889 0.0111777
16 1 9.54432 7.99534 11.1557 0.00290507 -0.00194343 -0.00449448
17 2 9.42247 7.61888 2.19101 -0.00608308 0.00130025 0.0184893
18 2 8.8422 7.57017 10.6496 0.00832289 -0.0025472 -0.0116605
19 1 4.81484 5.76054 11.4205 0.00594023 -0.00207632 0.00163929
20 2 4.58875 5.54719 2.53753 0.0140977 -0.0128209 0.0290563
21 2 11.1986 8.54655 10.0121 -0.00321721 0.00191907 0.0168874
22 1 9.67151 10.7895 11.5987 -0.00102455 0.00227628 0.0031841
23 2 9.4799 10.7562 2.72512 0.00951927 0.00371765 -0.0228036
24 2 9.44424 9.87348 11.2958 -0.00630064 -0.00933616 -0.0219089
25 1 3.27425 8.31443 6.25635 -0.000382894 0.00264797 -0.00572406
26 2 3.63544 9.20767 6.15056 0.0218204 -0.00412635 0.00329504
27 2 3.58585 6.43797 4.04289 -0.0344329 -0.025558 0.00373148
28 1 9.47048 7.24085 4.14972 0.00259879 0.00797333 -0.00178863
29 2 8.98171 6.69538 4.71697 0.013001 0.0177646 0.0282765
30 2 9.31336 8.17561 4.42033 0.0060211 -0.0206165 0.00466628
31 1 3.81566 11.0982 5.75356 -0.000590313 0.00122553 0.00249593
32 2 3.23728 12.5633 5.40023 -0.00908863 -0.0060288 -0.00902001
33 2 4.24604 11.06 4.97018 0.0181316 -0.0210968 0.0165342
34 1 7.78522 5.05461 9.09223 0.00390759 -0.00740549 0.00176668
35 2 7.62358 4.21155 9.50724 -0.000344996 0.0353438 0.0162313
36 2 7.30705 5.66583 9.72793 -0.0038624 -0.00768914 -0.0134273
37 1 7.92473 12.0763 10.1702 -0.00538622 -0.000179708 -0.00320961
38 2 9.04544 12.2981 8.89984 -0.0136125 0.00802391 -0.000272407
39 2 8.49016 11.7453 10.9433 -0.00384692 -0.0100582 -0.00626204
40 1 12.698 13.504 5.35772 0.00522518 -0.0073188 0.00289454
41 2 3.8015 4.87398 4.50036 -0.011909 0.00336351 -0.022714
42 2 11.8991 13.471 4.75363 0.0160946 0.0101792 0.00258221
43 1 4.29559 5.66991 4.25259 -0.000647924 1.48431e-05 0.00221801
44 2 12.6065 8.00579 4.74576 -0.00420305 -0.00568926 0.0251564
45 2 7.52939 12.8471 4.03817 0.00706267 0.0138363 0.0102164
46 1 9.58318 12.4948 8.03059 -0.00404475 -0.00359832 0.00593016
47 2 8.49332 12.1623 6.80315 -0.00463265 -0.00339666 0.00536552
48 2 10.2872 11.8556 7.9587 0.0105563 0.00586073 -0.00869734
49 1 10.5204 6.77389 8.41465 -0.00387078 -0.00391352 0.00273284
50 2 9.78498 6.16322 8.25233 -0.00138843 -0.0018091 0.00389656
51 2 10.179 7.28183 9.16621 -0.0117368 -0.00515323 0.0150335
52 1 9.09827 10.4873 4.33401 -0.0100028 -0.00458125 0.00530386
53 2 9.19777 10.2182 5.27744 -0.0193654 -0.00349471 -0.00683739
54 2 9.5513 11.3959 4.33801 -0.0193558 0.00710519 -0.011059
55 1 4.85735 10.9628 3.31193 -0.00296889 0.00144246 0.00475949
56 2 5.42654 10.1757 3.21112 0.00582506 0.012251 -0.0111141
57 2 3.93944 10.6987 2.96493 -0.0147242 0.00812842 -0.0113739
58 1 6.1093 10.1379 9.657 0.00318299 0.00880024 0.000781286
59 2 5.06445 12.9821 7.67855 -0.00233076 -0.0101047 -0.00970006
60 2 7.23527 11.4127 10.0369 -0.0283459 0.0173132 0.0119198
61 1 8.3421 5.3204 6.41523 0.00797167 0.00436374 -0.00600074
62 2 8.50689 5.19459 7.42173 -0.0094856 -0.0274889 -0.0186044
63 2 7.48852 5.80343 6.46236 0.0305315 0.00618887 -0.0142928
64 1 5.49166 12.0932 7.55589 0.00559989 0.00090437 -0.00616215
65 2 4.68144 11.4845 6.47268 -0.0567426 -0.0170398 -0.0512933
66 2 3.69395 4.33568 6.95995 0.00541133 0.00151122 -0.0107467
67 1 11.6674 10.5679 7.45842 -0.00649913 -0.00289093 0.00238335
68 2 12.2911 10.6629 6.68646 0.0077981 -0.00519955 -0.0147331
69 2 11.9614 9.68478 7.89918 -0.0161156 -0.0290525 -0.0168401
70 1 10.2651 13.1348 4.0323 -0.0016235 -0.00408398 0.000712085
71 2 9.93748 13.4682 3.2075 0.00783811 0.0021574 0.0114923
72 2 9.65131 13.4459 4.71952 0.00599451 0.00201027 0.00979881
73 1 9.43847 9.1949 7.04645 0.0074674 0.00464943 -0.00128012
74 2 9.83865 8.31178 7.18923 0.0181563 -0.0103105 -0.0030841
75 2 10.1812 9.79711 6.88652 0.0410651 0.0139708 0.0028114
76 1 12.0903 5.06356 9.93864 -0.00119281 -7.1022e-05 0.00394444
77 2 11.5669 5.68699 9.46902 -0.00114189 -0.00491708 -0.0184156
78 2 4.06404 5.45973 10.8471 0.00329832 0.0185697 0.000128805
79 1 12.1491 8.71559 9.63838 -0.0019198 -0.0017034 -0.00270432