ITEM: TIMESTEP
0
ITEM: NUMBER OF ATOMS
96
ITEM: BOX BOUNDS pp pp pp
2.9236100000000000e+00 1.2773600000000000e+01
4.0306300000000004e+00 1.3880599999999999e+01
2.1372399999999998e+00 1.1987200000000000e+01
ITEM: ATOMS id type x y z vx vy vz
1 1 7.25791 12.7797 3.12162 -0.00962789 0.00241335 -0.000293578
2 2 6.42941 12.3482 3.2539 0.0189835 -0.0117354 -0.00017918
3 2 9.40669 13.188 11.0635 -0.00453681 0.014641 0.00850659
4 1 12.3453 10.0696 2.39349 0.000128395 -0.000568159 0.000772397
5 2 11.4745 10.2927 11.9479 -0.0156212 -0.00931639 0.00732325
6 2 12.2588 9.13544 2.8574 0.00470307 0.010698 -0.0107095
7 1 12.2304 7.69234 3.83897 -0.000699306 -0.00176868 0.00078947
8 2 11.2751 7.51935 3.87381 0.00491127 -0.00590383 0.00681265
9 2 8.1022 8.34782 8.16087 0.0017935 -0.0102763 -0.00192997
10 1 7.45014 7.95073 8.7315 0.00624636 0.000809724 0.00148001
11 2 6.83614 7.45986 8.14686 0.0311473 -0.00762199 0.010432
12 2 6.47051 9.38286 9.12743 -0.0146234 -0.00924301 -0.000263662
13 1 5.93478 8.57823 2.40735 -0.0032872 0.00626859 0.000146804
14 2 5.89805 9.08078 11.426 -0.00526773 0.00566451 -0.0120211
15 2 5.38498 7.91413 11.9511 -0.0273489 -0.0100982 -0.0136911
16 1 9.5359 8.00171 11.1668 0.0026984 -0.00242253 -0.00251763
17 2 9.4403 7.6079 2.15789 -0.00574558 0.00849389 -0.0034279
18 2 8.81258 7.58662 10.6844 0.0115247 -0.00850327 -0.0102051
19 1 4.79556 5.76673 11.4142 0.00656596 -0.00220702 0.00315285
20 2 4.53943 5.58503 2.44946 0.0197193 -0.0101384 0.0166289
21 2 11.2878 8.55761 9.95031 -0.040063 -0.00654745 0.0178287
22 1 9.6759 10.7818 11.5895 -0.00180103 0.00258443 0.0024796
23 2 9.45034 10.7573 2.75675 0.00835032 -0.00575198 0.00837021
24 2 9.46122 9.88006 11.3411 -0.00419052 0.0090126 -0.00530073
25 1 3.27746 8.30635 6.27312 -0.00102224 0.00236481 -0.00547158
26 2 3.55688 9.23744 6.14219 0.0281989 -0.0145508 0.00222686
27 2 3.72169 6.43556 4.05659 -0.0467149 0.020645 -0.0114785
28 1 9.46503 7.22148 4.15272 0.00122571 0.00497647 -0.000450396
29 2 8.91838 6.63858 4.67494 0.0263195 0.015781 0.00283832
30 2 9.2834 8.17573 4.409 0.0137301 0.0244216 0.00330565
31 1 3.82206 11.0971 5.75469 -0.00411674 -0.000654759 -0.00216768
32 2 3.25191 12.5815 5.42845 -0.00202337 -0.00357665 -0.0111336
33 2 4.23904 11.1089 4.83329 -0.00629992 -0.0130924 0.0510772
34 1 7.77152 5.07718 9.08908 0.00503946 -0.00682837 0.000464282
35 2 7.63866 4.12762 9.44424 -0.00993622 0.00885683 0.0275969
36 2 7.34962 5.65745 9.74322 -0.021704 0.0129593 -0.0010301
37 1 7.94231 12.0793 10.1788 -0.0059952 -0.00140421 -0.00241293
38 2 9.10247 12.2815 8.86439 -0.0198659 0.00112462 0.0201198
39 2 8.49355 11.7625 10.9666 0.00238087 -0.0010376 -0.00878666
40 1 12.6808 13.5274 5.34736 0.00607427 -0.00807413 0.00391578
41 2 3.80974 4.86293 4.57736 0.00640095 -0.000876466 -0.0267983
42 2 11.8718 13.4316 4.77011 0.00332428 0.0147625 -0.012216
43 1 4.29677 5.67487 4.24341 -0.000816694 -0.0025395 0.00346797
44 2 12.5914 8.02651 4.69114 0.0128562 -0.00943933 0.00562149
45 2 7.52928 12.8064 4.02326 -0.0114416 0.0118783 -0.00606315
46 1 9.59271 12.5056 8.01492 -0.00268177 -0.00333049 0.00450794
47 2 8.48418 12.2005 6.78937 0.00617408 -0.0121346 -0.000456771
48 2 10.2768 11.8169 7.98141 -0.00339237 0.0169996 -0.00342502
49 1 10.5301 6.78423 8.40593 -0.00286743 -0.00281655 0.00334664
50 2 9.80038 6.18108 8.24562 -0.00736819 -0.00925412 0.000324071
51 2 10.2154 7.29813 9.12309 -0.00968936 -0.00898926 0.00871959
52 1 9.13052 10.5023 4.32381 -0.0112825 -0.00492455 0.00139694
53 2 9.23987 10.2219 5.26423 -0.00786762 0.00264702 0.014954
54 2 9.58693 11.3519 4.37534 -0.00815982 0.0138819 -0.012729
55 1 4.86728 10.9592 3.29802 -0.00406238 0.00103358 0.00433938
56 2 5.4103 10.126 3.23796 0.00395695 0.018524 -0.00777989
57 2 3.99022 10.6815 2.99433 -0.0102618 0.0041719 -0.00465163
58 1 6.09956 10.1104 9.65591 0.00346926 0.00898113 -2.91822e-05
59 2 5.06131 13.0142 7.7076 0.0053459 -0.0103024 -0.00872647
60 2 7.29363 11.3315 9.98975 -0.0147537 0.0314459 0.0178794
61 1 8.31842 5.30896 6.43783 0.00845384 0.00298775 -0.00900259
62 2 8.53975 5.26257 7.42628 -0.00955323 -0.0174483 0.0167383
63 2 7.38153 5.78937 6.47458 0.0302755 0.0080915 0.00453599
64 1 5.47561 12.0899 7.57391 0.00496117 0.0011133 -0.00599056
65 2 4.76358 11.5155 6.57916 0.00649401 -0.0021587 -0.0111945
66 2 3.6622 4.33328 6.97837 0.015272 0.000148428 -0.000948077
67 1 11.6863 10.574 7.45408 -0.00541267 -0.0017409 0.00025246
68 2 12.273 10.6833 6.72384 -0.00441141 -0.00997952 -0.000155812
69 2 11.9963 9.80859 7.94634 -0.0104596 -0.0427997 -0.0191111
70 1 10.2708 13.1462 4.03217 -0.00192223 -0.00370394 -7.09891e-05
71 2 9.90974 13.4728 3.16464 0.00689345 -0.00219331 0.0106239
72 2 9.63107 13.4474 4.67999 0.00800288 -0.00307036 0.0146173
73 1 9.41204 9.17912 7.04923 0.0106029 0.00564425 -0.000596801
74 2 9.8013 8.33329 7.20654 0.00318843 0.0015216 -0.00903796
75 2 10.1097 9.78778 6.88313 0.00310467 -0.00962253 0.000184344
76 1 12.0977 5.05995 9.92947 -0.00347969 0.00195314 0.00259683
77 2 11.5296 5.73524 9.49863 0.0204561 -0.0235824 -0.00353295
78 2 4.07026 5.4157 10.8725 -0.00463631 0.0114263 -0.0111792
79 1 12.153 8.72292 9.64939 -0.00163664 -0.00328302 -0.00414521
80 2 12.5768 9.29657 10.3238 0.020102 0.00223067 0.00703678
81 2 5.59064 10.6451 9.02863 -0.00536353 0.00947491 0.0227304
82 1 7.53387 5.48616 11.6703 -0.0031591 0.00162574 0.000684878
83 2 7.58975 4.67873 2.37672 -0.00803607 0.0044759 -0.00359231
84 2 6.68597 5.92492 11.9541 0.0124234 -0.0230229 0.0226632
85 1 9.84209 4.18239 11.1647 0.00549359 0.00103774 0.000847133
86 2 9.20045 4.89623 10.9936 0.00668462 0.0245937 -0.00722035
87 2 11.5006 4.48419 10.4409 0.00424096 -0.021704 0.0113927
88 1 7.7219 12.5939 6.25293 0.00269911 0.00515197 -0.00225563
89 2 6.43672 12.3309 7.04393 0.0022971 -0.00512031 -0.0029593
90 2 7.97622 13.5685 6.26722 -0.00230253 0.0287917 -0.014179
91 1 5.92819 6.66134 6.45306 0.00231708 0.00015631 -0.0102976
92 2 4.06602 7.81272 6.2011 0.0113715 0.00628846 -0.00974803
93 2 5.39541 6.07563 7.04112 -0.0125271 -0.0113745 0.000953286
94 1 4.16883 4.68051 7.72383 -0.00172981 -0.00090922 0.00575028
95 2 3.45932 4.8892 8.40586 0.0164286 -0.0174569 -0.0128796
96 2 5.62975 6.34948 5.56673 -0.0288423 -0.00630364 0.0209937
ITEM: TIMESTEP
1
ITEM: NUMBER OF ATOMS
96
ITEM: BOX BOUNDS pp pp pp
2.9236100000000000e+00 1.2773600000000000e+01
4.0306300000000004e+00 1.3880599999999999e+01
2.1372399999999998e+00 1.1987200000000000e+01
ITEM: ATOMS id type x y z vx vy vz
1 1 7.25311 12.781 3.12148 -0.0095459 0.00262162 -0.000288359
2 2 6.43781 12.3417 3.253 0.013678 -0.0147243 -0.00344251
3 2 9.40401 13.1956 11.0674 -0.00635247 0.0153449 0.00707314
4 1 12.3454 10.0692 2.39392 0.000212909 -0.00115659 0.000927942
5 2 11.4656 10.2885 11.9513 -0.0195967 -0.00743905 0.00640132
6 2 12.2613 9.14229 2.85142 0.00546717 0.0162294 -0.0129707
7 1 12.2301 7.69146 3.83921 -0.00049493 -0.00175636 0.000184609
8 2 11.277 7.51624 3.87803 0.0026475 -0.00655881 0.0101031
9 2 8.10336 8.34292 8.15933 0.00308537 -0.00915749 -0.00428424
10 1 7.4532 7.95111 8.73228 0.00599347 0.000712435 0.00166401
11 2 6.85232 7.45635 8.15207 0.0330048 -0.00682356 0.0100425
12 2 6.46386 9.3774 9.12704 -0.0121881 -0.0122002 -0.00120156
13 1 5.93318 8.58147 2.40741 -0.00319617 0.00662223 1.74663e-05
14 2 5.89667 9.08544 11.4197 -0.000807785 0.0111719 -0.0118614
15 2 5.36941 7.90545 11.9449 -0.0330168 -0.0216717 -0.0111241
16 1 9.53726 8.00053 11.1654 0.00272943 -0.00231153 -0.00295303
17 2 9.43744 7.61167 2.1576 -0.00575756 0.00656862 0.00232005
18 2 8.81821 7.58263 10.6791 0.0109809 -0.00746817 -0.0109046
19 1 4.79886 5.76565 11.4157 0.00660801 -0.00212437 0.0026907
20 2 4.54897 5.57964 2.45969 0.0184628 -0.0113514 0.0236039
21 2 11.2669 8.55424 9.96002 -0.0413971 -0.00651408 0.0204238
22 1 9.67502 10.7831 11.5908 -0.00170647 0.00260766 0.00274422
23 2 9.45473 10.755 2.75914 0.0091478 -0.0037092 0.0011915
24 2 9.45899 9.88349 11.3375 -0.00476651 0.00472516 -0.00901267
25 1 3.2769 8.30759 6.27038 -0.00119359 0.00256426 -0.00550612
26 2 3.571 9.2303 6.14336 0.0280826 -0.0136269 0.00244603
27 2 3.6975 6.44523 4.05121 -0.0489375 0.0166983 -0.00974207
28 1 9.46567 7.22406 4.15247 0.00136217 0.00539323 -0.000567427
29 2 8.93147 6.64714 4.67692 0.0255994 0.0180149 0.00552373
30 2 9.28994 8.18601 4.41073 0.0124705 0.0162921 0.00352314
31 1 3.82019 11.0969 5.75365 -0.00336607 -0.00027906 -0.0018704
32 2 3.25075 12.5794 5.4231 -0.00268787 -0.00477254 -0.0103211
33 2 4.236 11.1021 4.86015 -0.00526502 -0.0139658 0.0546931
34 1 7.77402 5.07365 9.08933 0.00494868 -0.00722608 0.000579573
35 2 7.63407 4.13417 9.4575 -0.00836544 0.017096 0.0253411
36 2 7.33904 5.66334 9.74287 -0.0201731 0.010189 -0.000990744
37 1 7.93929 12.0786 10.1776 -0.00604506 -0.00140706 -0.00257175
38 2 9.09219 12.2825 8.8742 -0.0207846 0.00294578 0.0185885
39 2 8.49434 11.7616 10.9622 0.000921823 -0.00264402 -0.00871783
40 1 12.6838 13.5234 5.34929 0.00601384 -0.00804376 0.00380241
41 2 3.81226 4.8632 4.56391 0.00356102 0.00166151 -0.0268546
42 2 11.8737 13.439 4.76435 0.00464231 0.0145402 -0.0105385
43 1 4.29646 5.67359 4.24515 -0.000497314 -0.00248743 0.00344448
44 2 12.5973 8.02206 4.69529 0.0106131 -0.00837657 0.0108008
45 2 7.52454 12.8125 4.02116 -0.00722539 0.0125167 -0.0019363
46 1 9.59137 12.5039 8.01722 -0.00272625 -0.00348643 0.00472134
47 2 8.48738 12.1936 6.78989 0.00627234 -0.0147276 0.00223469
48 2 10.2755 11.8254 7.97914 -0.00147563 0.0166159 -0.00544746
49 1 10.5287 6.78276 8.40755 -0.00290507 -0.00304655 0.00315459
50 2 9.79665 6.17657 8.24593 -0.00723504 -0.0085651 0.000942375
51 2 10.2102 7.29414 9.12822 -0.0110599 -0.00713697 0.0115924
52 1 9.1249 10.4998 4.32467 -0.0111681 -0.00505605 0.0020499
53 2 9.2354 10.2227 5.27109 -0.0100256 0.000893252 0.0120851
54 2 9.58289 11.3596 4.36892 -0.00838406 0.0162496 -0.0128675
55 1 4.86534 10.9597 3.30023 -0.00372158 0.00106532 0.00447673
56 2 5.41243 10.1353 3.23405 0.00458263 0.018504 -0.00792207
57 2 3.98393 10.6837 2.99132 -0.0143891 0.00449066 -0.00716489
58 1 6.10126 10.1149 9.65592 0.00335536 0.00917228 8.34947e-05
59 2 5.06361 13.0089 7.7031 0.00383666 -0.0108393 -0.00922842
60 2 7.28629 11.3474 9.99868 -0.0150865 0.0316171 0.0176513
61 1 8.32256 5.31054 6.43342 0.00813237 0.00332065 -0.0085843
62 2 8.53469 5.25342 7.43336 -0.0105854 -0.01919 0.011102
63 2 7.39785 5.79283 6.47634 0.0343496 0.00598859 0.00222881
64 1 5.47813 12.0905 7.57092 0.00512175 0.00116348 -0.00596864
65 2 4.76391 11.5137 6.57118 -0.0052001 -0.00504074 -0.0205172
66 2 3.66957 4.33346 6.97755 0.014017 0.000486526 -0.00250434
67 1 11.6835 10.5732 7.45431 -0.00585921 -0.00168097 0.000665995
68 2 12.2721 10.6786 6.72224 0.000623933 -0.00868553 -0.00599933
69 2 11.9913 9.78648 7.93746 -0.00990962 -0.0448462 -0.0168152
70 1 10.2698 13.1444 4.0321 -0.00195348 -0.00367741 -0.000159105
71 2 9.91367 13.4715 3.17071 0.00856164 -0.00265609 0.0132673
72 2 9.63494 13.4461 4.68734 0.00750109 -0.00223594 0.0146023
73 1 9.41719 9.18193 7.0489 0.00997742 0.00558118 -0.000709022
74 2 9.80382 8.33316 7.2023 0.00683715 -0.00209129 -0.00789043
75 2 10.1129 9.78384 6.88336 0.00992426 -0.00569732 0.000577683
76 1 12.096 5.06092 9.93076 -0.00322472 0.00186924 0.00262252
77 2 11.5398 5.72359 9.49661 0.0195595 -0.0224302 -0.00487381
78 2 4.06786 5.42158 10.8666 -0.00462579 0.0122322 -0.0118499
79 1 12.1523 8.72135 9.6473 -0.00127028 -0.00300076 -0.00415025
80 2 12.586 9.29709 10.3271 0.0161078 -0.000662198 0.00569589
81 2 5.58799 10.65 9.04 -0.0053405 0.0100878 0.0224276
82 1 7.53225 5.48702 11.6707 -0.00329699 0.00178846 0.000902248
83 2 7.58537 4.68109 2.37453 -0.00915091 0.00462936 -0.00508751
84 2 6.69284 5.91272 11.9648 0.0143843 -0.0251275 0.020138
85 1 9.84492 4.18293 11.1652 0.00581764 0.00118381 0.00100237
86 2 9.20327 4.908 10.9899 0.00503531 0.021882 -0.00751491
87 2 11.5024 4.47337 10.4466 0.0028856 -0.0210801 0.0111372
88 1 7.72328 12.5964 6.25173 0.0028491 0.00494929 -0.00252326
89 2 6.43737 12.3282 7.04279 0.000499852 -0.00567376 -0.00170864
90 2 7.97446 13.5847 6.26011 -0.00462014 0.0348491 -0.0140626
91 1 5.92934 6.66136 6.4479 0.00223593 -0.000100395 -0.0102845
92 2 4.073 7.81505 6.19638 0.0160813 0.00299347 -0.00905121
93 2 5.38933 6.0702 7.04156 -0.0112333 -0.00976331 0.000609822
94 1 4.16793 4.68006 7.72676 -0.00180813 -0.000898908 0.00593913
95 2 3.46841 4.88012 8.39893 0.0190916 -0.0186051 -0.0141127
96 2 5.61532 6.34663 5.57741 -0.0287576 -0.0050953 0.0209829
ITEM: TIMESTEP
2
ITEM: NUMBER OF ATOMS
96
ITEM: BOX BOUNDS pp pp pp
2.9236100000000000e+00 1.2773600000000000e+01
4.0306300000000004e+00 1.3880599999999999e+01
2.1372399999999998e+00 1.1987200000000000e+01
ITEM: ATOMS id type x y z vx vy vz
1 1 7.24836 12.7823 3.12133 -0.00939867 0.00285938 -0.000303173
2 2 6.44309 12.3335 3.25046 0.00706714 -0.0184632 -0.0066456
3 2 9.40034 13.2033 11.0706 -0.00843637 0.0156103 0.00559523
4 1 12.3455 10.0684 2.39442 0.000229514 -0.00165687 0.00101266
5 2 11.4549 10.2853 11.9543 -0.022588 -0.00560491 0.00569172
6 2 12.2643 9.15167 2.84443 0.00627604 0.0206213 -0.0146315
7 1 12.2299 7.69058 3.83915 -0.000257718 -0.00175763 -0.000376665
8 2 11.2777 7.51279 3.88391 0.000297358 -0.00727607 0.0133934
9 2 8.10529 8.33866 8.15659 0.00475803 -0.00775062 -0.00663687
10 1 7.45613 7.95144 8.73316 0.00577847 0.000652411 0.00189795
11 2 6.86914 7.45304 8.1569 0.0336991 -0.00687379 0.00891675
12 2 6.45832 9.37066 9.12623 -0.0101801 -0.0142721 -0.00184547
13 1 5.93158 8.58485 2.40737 -0.00328157 0.00682746 -0.000296637
14 2 5.89724 9.09195 11.4141 0.00276603 0.0136255 -0.00932693
15 2 5.35196 7.89246 11.94 -0.0349875 -0.0277976 -0.00810527
16 1 9.53863 7.9994 11.1638 0.00276901 -0.00219892 -0.00338321
17 2 9.43454 7.61447 2.16021 -0.0058407 0.00469339 0.00786
18 2 8.82356 7.57915 10.6735 0.0104087 -0.00645817 -0.0114932
19 1 4.80217 5.76461 11.4169 0.00658856 -0.00206516 0.00228069
20 2 4.55789 5.57368 2.47306 0.0172714 -0.0123851 0.0289403
21 2 11.2464 8.5511 9.97073 -0.0389579 -0.00570714 0.0218057
22 1 9.67419 10.7844 11.5922 -0.00160174 0.00262262 0.00298919
23 2 9.45949 10.7536 2.75794 0.00981169 -0.00181452 -0.00575599
24 2 9.45645 9.88479 11.3321 -0.00534182 0.000590475 -0.012546
25 1 3.27627 8.30891 6.26761 -0.00127035 0.00270325 -0.00554158
26 2 3.58496 9.22381 6.14464 0.0275754 -0.0120847 0.0026278
27 2 3.67275 6.45226 4.04685 -0.0490377 0.0103353 -0.00749625
28 1 9.46639 7.22687 4.15215 0.0015475 0.00589622 -0.000730862
29 2 8.94398 6.65659 4.68046 0.0240376 0.0193828 0.0090427
30 2 9.29587 8.19202 4.41252 0.0112558 0.00766564 0.00361559
31 1 3.81869 11.0968 5.75282 -0.00266628 8.08747e-05 -0.00135838
32 2 3.24922 12.5767 5.41813 -0.00352896 -0.00584292 -0.00962436
33 2 4.23377 11.0949 4.88798 -0.00296762 -0.0148857 0.0547933
34 1 7.77647 5.06995 9.08966 0.00479968 -0.00752135 0.000773594
35 2 7.63029 4.14472 9.46958 -0.00668962 0.0245198 0.0229454
36 2 7.32945 5.66764 9.74223 -0.0178201 0.00672108 -0.00211421
37 1 7.93626 12.0779 10.1762 -0.00602233 -0.00130564 -0.0027214
38 2 9.08169 12.2844 8.88298 -0.0208096 0.00459377 0.0160354
39 2 8.49447 11.7599 10.9579 -0.000293589 -0.00426173 -0.00840185
40 1 12.6868 13.5194 5.35116 0.00590485 -0.00797056 0.00365266
41 2 3.8133 4.86459 4.55051 0.000493864 0.00356833 -0.0266071
42 2 11.8764 13.4461 4.75957 0.00653397 0.0140923 -0.00836288
43 1 4.29627 5.67238 4.24685 -0.000310755 -0.00223828 0.00334032
44 2 12.602 8.01813 4.70194 0.00812149 -0.00740649 0.0154847
45 2 7.52205 12.8189 4.02132 -0.00278896 0.0132961 0.00253008
46 1 9.58998 12.5021 8.01964 -0.00286751 -0.00358991 0.00496601
47 2 8.49045 12.1858 6.7916 0.00559426 -0.0156989 0.00426133
48 2 10.2753 11.8335 7.97596 0.000852277 0.0154166 -0.00706205
49 1 10.5272 6.78118 8.40908 -0.00300104 -0.00327184 0.0029834
50 2 9.79314 6.17251 8.24656 -0.00654835 -0.00748595 0.00161566
51 2 10.2043 7.29099 9.13468 -0.0121039 -0.00566213 0.013917
52 1 9.11935 10.4972 4.32586 -0.0110045 -0.00510878 0.00273141
53 2 9.22984 10.2228 5.27632 -0.0121555 -0.000506436 0.00854068
54 2 9.57855 11.3681 4.36247 -0.00935297 0.0171495 -0.012849
55 1 4.86356 10.9603 3.3025 -0.00343676 0.00111442 0.00458789
56 2 5.41488 10.1445 3.23004 0.00517067 0.0180143 -0.00823414
57 2 3.97583 10.686 2.98717 -0.017351 0.00493191 -0.00917063
58 1 6.10292 10.1196 9.65599 0.00326689 0.00927745 0.000216979
59 2 5.06515 13.0034 7.69837 0.00230431 -0.0110132 -0.00962411
60 2 7.27854 11.3631 10.0074 -0.0163534 0.0305065 0.0170353
61 1 8.32655 5.31228 6.42925 0.00789379 0.0036197 -0.00808648
62 2 8.52916 5.24338 7.43738 -0.0113172 -0.0209756 0.00473937
63 2 7.41588 5.79536 6.47681 0.037 0.00443513 -0.000554169
64 1 5.48073 12.0911 7.56794 0.00526132 0.00116382 -0.00596348
65 2 4.75838 11.5105 6.55864 -0.0168844 -0.00787475 -0.029316
66 2 3.67622 4.33377 6.97587 0.0124519 0.000677888 -0.00432176
67 1 11.6804 10.5723 7.45475 -0.00621087 -0.00172529 0.00109431
68 2 12.2736 10.6746 6.71784 0.00489688 -0.00746127 -0.0110394
69 2 11.9864 9.76374 7.92952 -0.0100668 -0.0451713 -0.0153394
70 1 10.2688 13.1425 4.03201 -0.00194957 -0.00368594 -0.000165352
71 2 9.9183 13.4701 3.17791 0.0096374 -0.00267747 0.0150206
72 2 9.63857 13.4452 4.69459 0.00703757 -0.00137671 0.0142601
73 1 9.42202 9.1847 7.04852 0.0093283 0.00546774 -0.000815944
74 2 9.80814 8.3312 7.19865 0.0102547 -0.00555533 -0.00673276
75 2 10.1196 9.78208 6.88371 0.0172833 -0.00113408 0.000777829
76 1 12.0945 5.06182 9.93209 -0.00289789 0.00165201 0.00274743
77 2 11.5492 5.71281 9.49376 0.0172152 -0.0201401 -0.00683471
78 2 4.06563 5.42793 10.8607 -0.00396512 0.0132845 -0.0113799
79 1 12.1517 8.71992 9.64524 -0.00109177 -0.00271091 -0.0040197
80 2 12.5929 9.29591 10.3295 0.0112423 -0.00439839 0.00340095
81 2 5.5853 10.6552 9.05106 -0.00550834 0.010805 0.0214594
82 1 7.53057 5.48795 11.6712 -0.00336637 0.00191917 0.0010936
83 2 7.5806 4.68336 2.37163 -0.00961547 0.0040375 -0.00640472
84 2 6.70035 5.89979 11.9742 0.0148713 -0.0258449 0.0177439
85 1 9.84791 4.18357 11.1657 0.00610119 0.00142282 0.00114084
86 2 9.20549 4.91811 10.9861 0.00426639 0.0180853 -0.0075083
87 2 11.5035 4.46311 10.452 0.00176935 -0.0195123 0.0101824
88 1 7.72475 12.5988 6.25041 0.00303351 0.00478242 -0.00275965
89 2 6.43722 12.3252 7.04222 -0.000942751 -0.0060668 -0.000670125
90 2 7.9716 13.6033 6.25316 -0.00672228 0.0386102 -0.0135281
91 1 5.93043 6.66124 6.44278 0.00207715 -0.000412014 -0.0101507
92 2 4.0821 7.81571 6.19205 0.0196243 -0.000201051 -0.00818632
93 2 5.38418 6.06587 7.04173 -0.00884272 -0.00704457 -6.12062e-05
94 1 4.16702 4.67961 7.72977 -0.00176104 -0.000902826 0.00604433
95 2 3.47841 4.87059 8.39175 0.019996 -0.0192379 -0.0138172
96 2 5.60099 6.34438 5.58771 -0.0284932 -0.00388104 0.0195161
ITEM: TIMESTEP
3
ITEM: NUMBER OF ATOMS
96
ITEM: BOX BOUNDS pp pp pp
2.9236100000000000e+00 1.2773600000000000e+01
4.0306300000000004e+00 1.3880599999999999e+01
2.1372399999999998e+00 1.1987200000000000e+01
ITEM: ATOMS id type x y z vx vy vz
1 1 7.24371 12.7838 3.12118 -0.00921999 0.00310526 -0.000297267
2 2 6.44488 12.3232 3.24636 0.000331524 -0.0223912 -0.00953141
3 2 9.39557 13.2112 11.073 -0.0106878 0.0154609 0.00410028
4 1 12.3456 10.0675 2.39494 0.000167466 -0.00204027 0.00101357
5 2 11.443 10.2829 11.957 -0.0243824 -0.00387568 0.00526437
6 2 12.2676 9.16291 2.83679 0.00708886 0.0234946 -0.0155181
7 1 12.2298 7.6897 3.83883 -6.19781e-08 -0.00177209 -0.000872449
8 2 11.2773 7.50897 3.89143 -0.00185766 -0.0080216 0.0166011
9 2 8.10812 8.33517 8.15269 0.00663992 -0.00614538 -0.00881027
10 1 7.45897 7.95176 8.73418 0.0056112 0.000640324 0.00216832
11 2 6.88602 7.44948 8.16099 0.0332445 -0.00779585 0.0070929
12 2 6.45368 9.36313 9.12519 -0.00865595 -0.0152935 -0.00208161
13 1 5.9299 8.5883 2.40712 -0.00353732 0.0068801 -0.000770549
14 2 5.89943 9.09907 11.4104 0.00587675 0.0142866 -0.00527298
15 2 5.33442 7.87766 11.9368 -0.0337839 -0.029649 -0.00423098
16 1 9.54002 7.99833 11.1621 0.00281112 -0.00209781 -0.00377576
17 2 9.43159 7.61637 2.16546 -0.00595812 0.00308752 0.012632
18 2 8.82862 7.57617 10.6676 0.00984371 -0.00546506 -0.0118976
19 1 4.80545 5.76358 11.4179 0.00650446 -0.00203199 0.00195342
20 2 4.56624 5.56726 2.48863 0.0162197 -0.0131207 0.0322473
21 2 11.228 8.54853 9.98183 -0.0332064 -0.00427582 0.0220048
22 1 9.67342 10.7857 11.5938 -0.00148473 0.00261133 0.00318171
23 2 9.46454 10.7531 2.75339 0.0102509 -9.80985e-05 -0.0120015
24 2 9.45364 9.88409 11.325 -0.00584278 -0.00309767 -0.0157374
25 1 3.27563 8.31029 6.26483 -0.00123314 0.00277742 -0.00558113
26 2 3.59858 9.21822 6.14599 0.0266847 -0.0101482 0.00279284
27 2 3.64846 6.45557 4.04372 -0.0472849 0.00219428 -0.00486886
28 1 9.46722 7.22996 4.15174 0.00177635 0.00644866 -0.000942132
29 2 8.95551 6.66652 4.68597 0.0217638 0.0199026 0.0132983
30 2 9.3012 8.19367 4.41434 0.0100385 -0.000883415 0.00368265
31 1 3.81753 11.0969 5.7523 -0.00203349 0.000419062 -0.000628735
32 2 3.24723 12.5736 5.41347 -0.00457086 -0.00663718 -0.00910988
33 2 4.23303 11.0873 4.91494 0.000679191 -0.015928 0.0509402
34 1 7.77882 5.06613 9.0901 0.0046048 -0.00769592 0.00101964
35 2 7.62738 4.15869 9.48045 -0.0049762 0.0305351 0.0206159
36 2 7.32122 5.67006 9.74076 -0.0148021 0.00286071 -0.00418435
37 1 7.93327 12.0773 10.1748 -0.00593103 -0.00111218 -0.00286027
38 2 9.07138 12.2871 8.89024 -0.019994 0.00598549 0.0126381
39 2 8.49405 11.7573 10.9538 -0.00130467 -0.00584817 -0.00790248
40 1 12.6897 13.5154 5.35295 0.00575814 -0.00785864 0.00347552
41 2 3.81276 4.86677 4.5373 -0.00271664 0.00474157 -0.0260564
42 2 11.8802 13.453 4.75599 0.0088448 0.0134158 -0.00580088
43 1 4.29615 5.67135 4.24849 -0.000247002 -0.00182268 0.00315737
44 2 12.6054 8.01466 4.71078 0.00536029 -0.00660767 0.0194324
45 2 7.52175 12.8258 4.02369 0.00118792 0.0139628 0.00645216
46 1 9.5885 12.5003 8.02219 -0.00309233 -0.0036448 0.00522565
47 2 8.49298 12.1779 6.79415 0.00407808 -0.0149314 0.00554921
48 2 10.2764 11.8408 7.97208 0.00342952 0.0135378 -0.00821702
49 1 10.5257 6.77949 8.41054 -0.00315397 -0.00347981 0.00284763
50 2 9.79011 6.16909 8.24754 -0.00542874 -0.0061146 0.002311
51 2 10.1981 7.28847 9.14214 -0.0127295 -0.00469408 0.0154943
52 1 9.1139 10.4947 4.3274 -0.0107959 -0.00508037 0.00342032
53 2 9.22324 10.2222 5.27963 -0.014206 -0.00158733 0.00456923
54 2 9.57353 11.3768 4.35607 -0.0110444 0.0165444 -0.0126706
55 1 4.8619 10.9608 3.30482 -0.00321922 0.0011784 0.00467134
56 2 5.41761 10.1533 3.22582 0.00564719 0.0170846 -0.00872433
57 2 3.96658 10.6886 2.98215 -0.0189018 0.00552557 -0.0105952
58 1 6.10453 10.1242 9.65614 0.00320741 0.00928882 0.000362395
59 2 5.06592 12.9978 7.69348 0.000840848 -0.0109276 -0.00988557
60 2 7.26993 11.3779 10.0157 -0.0185026 0.0282534 0.0160743
61 1 8.33045 5.31416 6.42533 0.00775332 0.00387679 -0.00754611
62 2 8.52337 5.23244 7.4381 -0.011634 -0.0227635 -0.00184539
63 2 7.43485 5.79727 6.47578 0.0379896 0.00359658 -0.00371983
64 1 5.48339 12.0916 7.56496 0.00538019 0.00112711 -0.00597703
65 2 4.74703 11.5058 6.54186 -0.0282839 -0.0106231 -0.0372558
66 2 3.68202 4.33414 6.97323 0.010686 0.000791051 -0.00624917
67 1 11.6773 10.5714 7.4554 -0.00645099 -0.00187745 0.00150507
68 2 12.277 10.6712 6.7112 0.00799175 -0.00642743 -0.0147263
69 2 11.9812 9.74131 7.92212 -0.0108874 -0.0436402 -0.0147088
70 1 10.2679 13.1407 4.03194 -0.00191095 -0.00373231 -8.03365e-05
71 2 9.92331 13.4689 3.18573 0.0100772 -0.00220444 0.0157299
72 2 9.64198 13.4447 4.7016 0.00663806 -0.000507507 0.0135923
73 1 9.42652 9.1874 7.04809 0.00870786 0.00530871 -0.000921986
74 2 9.81408 8.3276 7.19557 0.0132362 -0.00842425 -0.00563136
75 2 10.1301 9.78271 6.88413 0.0246103 0.00356081 0.00095468
76 1 12.0931 5.06257 9.93351 -0.00251297 0.00131854 0.0029632
77 2 11.557 5.70345 9.48977 0.0136341 -0.0169106 -0.00935004
78 2 4.0639 5.43487 10.8552 -0.00270273 0.0145303 -0.00979642
79 1 12.1512 8.71864 9.64328 -0.00109098 -0.00242467 -0.00377765
80 2 12.5972 9.29269 10.3305 0.00583056 -0.00865632 0.000450346
81 2 5.58248 10.6608 9.06146 -0.00581778 0.0115703 0.0198728
82 1 7.52888 5.48894 11.6718 -0.00335924 0.00201638 0.00125446
83 2 7.57576 4.68513 2.36813 -0.0094234 0.00265626 -0.00751932
84 2 6.70771 5.88687 11.9825 0.013746 -0.0251132 0.0155875
85 1 9.85102 4.18436 11.1663 0.00634376 0.00173943 0.00126154
86 2 9.20753 4.92608 10.9824 0.00430532 0.0134232 -0.00723049
87 2 11.5041 4.45386 10.4568 0.000891273 -0.0170508 0.00856417
88 1 7.72632 12.6012 6.24897 0.00325419 0.0046562 -0.00295922
89 2 6.43643 12.3221 7.04212 -0.00211717 -0.00632968 0.000185725
90 2 7.96774 13.6233 6.24658 -0.00862058 0.0398034 -0.0125798
91 1 5.93142 6.66095 6.43775 0.00184931 -0.000763373 -0.00990975
92 2 4.09263 7.81484 6.18819 0.0216807 -0.00304229 -0.00714111
93 2 5.38048 6.06315 7.0415 -0.00550631 -0.00341178 -0.000934092
94 1 4.16617 4.67916 7.73281 -0.00158865 -0.000926317 0.00605015
95 2 3.4884 4.86088 8.38511 0.019034 -0.0193584 -0.011891
96 2 5.58683 6.34275 5.59692 -0.0280868 -0.00267194 0.0166764
ITEM: TIMESTEP
4
ITEM: NUMBER OF ATOMS
96
ITEM: BOX BOUNDS pp pp pp
2.9236100000000000e+00 1.2773600000000000e+01
4.0306300000000004e+00 1.3880599999999999e+01
2.1372399999999998e+00 1.1987200000000000e+01
ITEM: ATOMS id type x y z vx vy vz
1 1 7.23914 12.7854 3.12103 -0.00904448 0.00333668 -0.000237277
2 2 6.44342 12.3111 3.24093 -0.00552101 -0.0259661 -0.0119443
3 2 9.38965 13.2188 11.0747 -0.012984 0.0149542 0.00261807
4 1 12.3457 10.0664 2.39543 2.2372e-05 -0.00228542 0.000922916
5 2 11.4305 10.2814 11.9596 -0.0248666 -0.00229676 0.00515634
6 2 12.2714 9.17516 2.82891 0.00786977 0.024547 -0.0154921
7 1 12.2299 7.68881 3.83828 0.000263096 -0.00179948 -0.00128536
8 2 11.2759 7.50477 3.90051 -0.00355441 -0.00875511 0.0196327
9 2 8.11193 8.33252 8.14778 0.00853258 -0.00444455 -0.0106172
10 1 7.46174 7.95208 8.73533 0.00549713 0.000681634 0.00245551
11 2 6.90239 7.44524 8.164 0.0317604 -0.00952326 0.00469125
12 2 6.44967 9.35537 9.12415 -0.00762309 -0.0151809 -0.00184767
13 1 5.92805 8.59173 2.4066 -0.00393227 0.00679612 -0.00135382
14 2 5.90312 9.10624 11.4089 0.00877258 0.0141089 -0.000523123
15 2 5.31818 7.86281 11.9357 -0.0301487 -0.0284232 0.000500874
16 1 9.54144 7.9973 11.1601 0.00285037 -0.00201824 -0.00410344
17 2 9.42858 7.61756 2.17284 -0.00606523 0.00192365 0.0161783
18 2 8.8334 7.57369 10.6616 0.00930715 -0.00448258 -0.01207
19 1 4.80867 5.76257 11.4188 0.00635992 -0.00202501 0.00173061
20 2 4.57411 5.56056 2.50531 0.0153428 -0.0134684 0.0333352
21 2 11.2132 8.54682 9.99274 -0.0248098 -0.00240079 0.0211335
22 1 9.67271 10.787 11.5954 -0.00134931 0.00255536 0.00329512
23 2 9.46974 10.7535 2.74594 0.0103867 0.00141273 -0.0171293
24 2 9.45061 9.88169 11.3163 -0.00620254 -0.00608933 -0.0184384
25 1 3.27503 8.31169 6.26203 -0.00107156 0.00278823 -0.00562593
26 2 3.61165 9.21366 6.14743 0.025419 -0.00804795 0.00295636
27 2 3.62547 6.45445 4.04198 -0.0440223 -0.00699531 -0.00201397
28 1 9.46817 7.23332 4.15121 0.00203813 0.00700875 -0.00119676
29 2 8.96574 6.6765 4.69376 0.0189833 0.0196793 0.0181089
30 2 9.30591 8.19114 4.41621 0.00877921 -0.00879159 0.00382164
31 1 3.81666 11.0972 5.75219 -0.00147715 0.00072835 0.000296107
32 2 3.24465 12.5701 5.40902 -0.00584807 -0.0069895 -0.00882129
33 2 4.23445 11.079 4.93892 0.00561474 -0.0172358 0.0429815
34 1 7.78107 5.06226 9.09068 0.00437941 -0.00773735 0.00128792
35 2 7.62532 4.17525 9.4902 -0.00329878 0.0346044 0.0185736
36 2 7.31464 5.6705 9.73804 -0.0113191 -0.00105136 -0.00694355
37 1 7.93033 12.0768 10.1734 -0.00578504 -0.000842501 -0.00299018
38 2 9.06169 12.2904 8.89562 -0.0184316 0.00705183 0.00861753
39 2 8.49317 11.754 10.95 -0.00217767 -0.0073647 -0.00730908
40 1 12.6926 13.5115 5.35464 0.00558672 -0.0077112 0.003282
41 2 3.81058 4.86933 4.52445 -0.00595666 0.00511174 -0.0252117
42 2 11.8853 13.4596 4.75377 0.0113704 0.0125193 -0.00300271
43 1 4.29603 5.67056 4.25001 -0.000292069 -0.00127946 0.00290194
44 2 12.6074 8.01153 4.72137 0.00234376 -0.00603666 0.0224485
45 2 7.52324 12.8329 4.02778 0.00421377 0.0143112 0.00915902
46 1 9.58689 12.4985 8.02487 -0.00338083 -0.00365831 0.00548334
47 2 8.49453 12.1708 6.79715 0.0017607 -0.0124668 0.00610009
48 2 10.2788 11.8471 7.96775 0.00605422 0.0111695 -0.00887978
49 1 10.524 6.7777 8.41193 -0.00335722 -0.00366002 0.00275768
50 2 9.78772 6.1664 8.24887 -0.00410644 -0.00463806 0.00293693
51 2 10.1916 7.2863 9.15018 -0.0128801 -0.00429256 0.0162135
52 1 9.10856 10.4922 4.32928 -0.010551 -0.00497535 0.0040941
53 2 9.21564 10.2212 5.28088 -0.0161243 -0.00239892 0.000462164
54 2 9.5675 11.3847 4.3498 -0.0133734 0.0145194 -0.0123224
55 1 4.86034 10.9614 3.30717 -0.00307238 0.00125559 0.00472692
56 2 5.42053 10.1616 3.22131 0.00594747 0.0157645 -0.00938494
57 2 3.95693 10.6915 2.97657 -0.018936 0.00627376 -0.011414
58 1 6.10612 10.1289 9.65636 0.00317673 0.00920678 0.000510336
59 2 5.06599 12.9924 7.68849 -0.000465689 -0.0106885 -0.00999117
60 2 7.26004 11.3914 10.0235 -0.021389 0.0250914 0.0148408
61 1 8.33431 5.31616 6.4217 0.00772007 0.00408708 -0.00699866
62 2 8.51753 5.22062 7.43554 -0.0113995 -0.02446 -0.00814991
63 2 7.45387 5.79896 6.47309 0.0371979 0.00359211 -0.00715513
64 1 5.48611 12.0922 7.56196 0.00547731 0.00106538 -0.00601282
65 2 4.7301 11.4998 6.52139 -0.0390169 -0.0131762 -0.0438729
66 2 3.6869 4.33456 6.96962 0.00884283 0.000909118 -0.00809991
67 1 11.674 10.5704 7.45625 -0.006574 -0.00213209 0.00186959
68 2 12.2816 10.6682 6.70311 0.00959579 -0.00567679 -0.0166656
69 2 11.9755 9.7201 7.91482 -0.0122684 -0.0402914 -0.0148538
70 1 10.2669 13.1388 4.03193 -0.00184029 -0.00381648 9.85912e-05
71 2 9.92838 13.4679 3.19364 0.00988333 -0.00121952 0.0153335
72 2 9.64521 13.4447 4.70818 0.0063233 0.000356288 0.0126105
73 1 9.43073 9.19001 7.0476 0.00816559 0.00511241 -0.00103207
74 2 9.82137 8.32277 7.19302 0.0156151 -0.010323 -0.00463771
75 2 10.1442 9.78564 6.88466 0.0313328 0.0078954 0.0012721
76 1 12.092 5.06314 9.93506 -0.00208736 0.000896123 0.0032524
77 2 11.5628 5.6959 9.48441 0.00912385 -0.0130432 -0.0122725
78 2 4.06293 5.44246 10.8509 -0.00095115 0.0158912 -0.00721234