ITEM: TIMESTEP
0
ITEM: NUMBER OF ATOMS
96
ITEM: BOX BOUNDS pp pp pp
2.9236100000000000e+00 1.2773600000000000e+01
4.0306300000000004e+00 1.3880599999999999e+01
2.1372399999999998e+00 1.1987200000000000e+01
ITEM: ATOMS id type x y z vx vy vz
1 1 8.50442 12.2731 4.33109 0.0107286 1.76344e-05 0.00381864
2 2 7.74648 11.9353 3.86895 0.0141169 0.0364238 -0.00816872
3 2 9.41055 13.2669 2.39989 -0.000132368 0.0147138 0.0213802
4 1 3.52434 11.8268 11.7962 0.00133771 -0.000764101 0.00504075
5 2 3.24378 11.0921 11.2412 -0.01748 -0.000467653 0.00818556
6 2 12.6154 12.0193 2.41637 -0.0202524 0.0356332 -0.00526733
7 1 3.02881 7.46688 3.05758 -0.00353693 -0.00305934 -0.000958445
8 2 11.9342 7.01264 3.18353 -0.0357549 0.00461276 -0.00639491
9 2 7.8893 7.69739 6.19805 0.00679198 0.0133667 0.0249174
10 1 7.39166 8.64897 6.12462 0.00243892 0.00154739 -0.0096768
11 2 6.49319 8.32884 5.75455 -0.00119482 0.0351146 0.0324345
12 2 6.85982 9.18662 7.59355 0.00213195 0.0245139 -0.0127955
13 1 5.90068 8.40406 2.4722 -4.65283e-06 -0.00162669 -0.000380514
14 2 5.46813 8.16395 11.4743 0.0223795 -0.0283343 0.00484629
15 2 5.46288 7.78736 3.04173 0.0224417 0.0139214 -0.00646748
16 1 8.94959 7.53795 2.51973 -0.00712865 0.00107452 -0.00171867
17 2 9.15662 6.61261 2.59864 -0.00341513 0.0115618 -0.000367783
18 2 8.0048 7.50147 2.54644 0.0165412 0.00298233 -0.00347908
19 1 3.64532 7.49279 10.2834 -0.00498359 0.00170086 -0.00153187
20 2 3.16327 7.25519 11.1116 -0.0209563 -0.0267493 0.00326728
21 2 11.589 9.92041 10.2392 0.0258166 0.0442831 -0.00139048
22 1 10.1638 9.92889 11.499 -0.00218853 -0.00169677 0.00537381
23 2 10.4208 10.6097 2.35827 -0.019927 0.00352082 -0.0097025
24 2 9.73724 9.13425 11.9019 0.0088279 -0.026977 -0.00767369
25 1 2.97461 9.61608 5.19434 -0.00338661 0.00538453 0.00426408
26 2 3.45763 10.5142 5.17044 -0.0325695 0.024294 -0.00257664
27 2 4.41466 6.26926 3.22658 -0.00475053 -0.0156777 0.00713088
28 1 11.1745 5.84658 4.1827 -0.00501616 0.00522543 0.00219329
29 2 11.7112 5.55834 4.94282 0.0264007 -0.00843917 0.028147
30 2 10.5569 6.34589 4.63355 -0.00748804 -0.0243772 -0.00571662
31 1 4.55434 11.6935 5.53347 0.00709925 0.00143279 0.00215704
32 2 3.91286 13.2147 5.85823 -0.0274403 0.0107632 0.00316152
33 2 5.21357 11.4821 4.76844 0.00563551 -0.0316304 0.00212288
34 1 4.73399 13.3548 9.64402 0.00152078 0.008098 0.00526626
35 2 4.30776 12.9696 10.4043 0.00652943 0.00685259 -0.00605665
36 2 5.54207 13.6969 10.024 0.026901 -0.00360198 0.0156841
37 1 8.29077 10.9402 9.77882 0.00663778 -0.00904541 0.0055324
38 2 8.91997 11.1891 9.03128 -0.0108424 -0.000352469 -0.0219748
39 2 8.81823 10.5064 10.499 -0.0197482 0.0118111 0.000438433
40 1 3.49205 4.30822 5.71533 0.00173218 -0.00147408 0.00172766
41 2 4.4247 5.1433 4.30174 -0.00261739 0.00654965 0.0170514
42 2 12.446 4.24458 6.10281 -0.0044745 -0.00292527 0.0048569
43 1 5.05822 5.76756 3.80415 -0.00136597 -0.00171129 0.00249714
44 2 3.0304 8.26643 3.64428 0.00781433 -0.00415498 0.00269269
45 2 8.22117 12.8905 5.04269 0.012455 0.0196197 -0.00180052
46 1 9.64524 11.7397 7.47854 -0.00256556 0.00563896 0.00120488
47 2 9.05338 12.0868 6.75845 0.0106877 -0.000721321 -0.00527548
48 2 10.1778 10.9119 7.03228 0.00389633 0.00677031 0.00647546
49 1 9.38198 6.99455 9.27601 0.00240619 -0.00438469 -0.0117434
50 2 8.67679 6.53973 8.79651 -0.0123624 -0.00901195 -0.0137049
51 2 9.00047 7.38796 10.0785 -0.000637337 0.0250301 -0.00592294
52 1 10.9546 11.5961 3.62116 -0.00339198 -0.00397396 0.0017103
53 2 10.0686 11.7644 4.0853 -0.036291 -0.00167226 0.00257712
54 2 11.4457 11.0819 4.28669 -0.00820837 0.0162998 0.0111111
55 1 6.02751 11.1403 3.35929 0.00515529 0.000709532 -0.0030872
56 2 5.80236 10.2015 3.33958 -0.0217809 -0.00873734 0.0169452
57 2 5.20732 11.6214 3.03228 0.0223453 -0.00620538 0.00221919
58 1 6.60556 9.28783 8.58399 -0.00581668 -0.00348212 -0.00353624
59 2 4.76859 11.9592 8.66658 0.0077038 -0.0296266 0.0305476
60 2 7.41093 9.76444 9.03178 -0.027599 0.0113569 -0.00765351
61 1 7.06881 5.60318 8.58087 0.00248093 -0.00261317 -0.00205656
62 2 7.07638 5.36962 9.51213 -0.00617176 0.00476218 -0.00308878
63 2 6.20267 5.93089 8.30389 -0.0332804 0.0100457 -0.0178735
64 1 4.88171 11.1251 8.02808 -0.00178154 0.00150449 -0.0035763
65 2 5.06435 11.4292 6.3756 -0.00529455 0.0101401 -0.0183139
66 2 4.20322 5.36492 6.88303 -0.00244508 0.00207669 -0.00430616
67 1 10.7925 9.38803 6.97028 -0.002779 0.00505411 -0.00299378
68 2 11.591 9.4123 6.39813 0.00667056 0.0281619 0.00546529
69 2 11.1346 9.33065 7.93611 0.0142589 -0.0141183 -0.00962698
70 1 11.152 4.16264 7.40455 0.00352072 -0.00260851 0.000332823
71 2 10.5742 13.1931 7.54225 0.0135298 -0.0149327 0.0150805
72 2 11.3657 4.4794 8.3027 0.0176935 -0.00169189 0.000321768
73 1 9.00884 6.54935 6.41844 -0.00547944 -0.00381648 -0.00333186
74 2 8.7639 6.01564 7.13275 -0.00188693 0.0242986 0.0025262
75 2 9.66188 7.1137 6.81267 0.00102138 -0.0167195 0.0129266
76 1 11.4146 5.20288 9.89467 0.00499913 -0.0104959 -0.004766
77 2 10.8113 5.92508 9.64942 -0.00675727 -0.01617 0.0129798
78 2 3.40549 6.78094 9.62493 -0.0129301 0.000493285 0.00890769
79 1 12.1437 9.66256 9.46058 0.000391069 -0.00136984 -0.00181391
80 2 12.6746 8.88086 9.71922 -0.0114887 0.0215298 0.0118559
81 2 5.66618 10.6519 8.40548 0.0301161 0.0130307 0.000773452
82 1 6.72659 5.04412 11.3066 0.00778818 0.00136061 0.00694976
83 2 7.63332 4.81276 11.6199 0.0124719 -0.0122874 0.00165191
84 2 6.18146 4.95003 2.24692 0.0226131 -0.0151145 -0.00856134
85 1 9.54366 4.28299 11.9081 0.00487714 -0.00180516 0.000920836
86 2 10.0712 4.652 2.80689 0.0238353 0.00678785 -0.0147211
87 2 10.843 4.68295 10.5102 -0.0253978 -0.00908113 -0.00293017
88 1 7.3301 13.2141 6.74901 -0.000391148 0.0034365 0.00143773
89 2 6.87995 12.6395 7.43572 -0.0243296 0.0237429 -0.00167163
90 2 7.37985 4.209 7.15398 0.0315095 0.00336111 -0.0125825
91 1 4.98162 7.67653 5.66237 -0.00400934 -0.00146157 -0.00706132
92 2 3.72651 8.92156 5.36976 -0.00314355 -0.000245556 0.0134852
93 2 4.60036 7.20905 6.46152 0.025425 -0.0115522 0.00218123
94 1 4.5045 5.75216 7.76282 -0.0065122 0.0012283 -0.00213152
95 2 4.28047 5.12912 8.45583 0.0011918 -0.00360231 0.00829235
96 2 5.05874 6.90894 4.86751 -0.0247665 0.00683052 0.0411488
ITEM: TIMESTEP
1
ITEM: NUMBER OF ATOMS
96
ITEM: BOX BOUNDS pp pp pp
2.9236100000000000e+00 1.2773600000000000e+01
4.0306300000000004e+00 1.3880599999999999e+01
2.1372399999999998e+00 1.1987200000000000e+01
ITEM: ATOMS id type x y z vx vy vz
1 1 8.50981 12.2732 4.33304 0.0108203 0.000296098 0.00400088
2 2 7.75261 11.9533 3.86494 0.0101254 0.0355637 -0.00810838
3 2 9.4103 13.2735 2.41079 -0.00091522 0.0113987 0.0223046
4 1 3.52513 11.8264 11.7986 0.00176442 -0.000878378 0.00478345
5 2 3.2351 11.0919 11.2452 -0.0171767 -0.000248355 0.00786496
6 2 12.6034 12.0376 2.41499 -0.0266516 0.0370765 -0.000941442
7 1 3.02692 7.46534 3.05712 -0.0040605 -0.00310625 -0.000864354
8 2 11.9186 7.01573 3.18079 -0.0259998 0.00796202 -0.00448015
9 2 7.8926 7.70621 6.21089 0.00617577 0.0214725 0.0261512
10 1 7.39288 8.64958 6.11976 0.00248498 0.000965915 -0.00972746
11 2 6.49279 8.34732 5.77111 -0.000641113 0.0381967 0.0334409
12 2 6.861 9.19844 7.58734 0.00250096 0.0226841 -0.011796
13 1 5.90065 8.40323 2.47194 -5.45982e-05 -0.00164123 -0.000677487
14 2 5.47973 8.15028 11.4774 0.0237829 -0.0264066 0.0072616
15 2 5.47407 7.79427 3.0389 0.0217645 0.0129218 -0.00409099
16 1 8.94604 7.53848 2.51886 -0.00699385 0.00108276 -0.00176711
17 2 9.15525 6.61809 2.59842 -0.00192232 0.00982022 -0.000460773
18 2 8.01235 7.50342 2.5447 0.0125116 0.00481342 -0.00344692
19 1 3.64282 7.49358 10.2826 -0.00505106 0.001425 -0.00166912
20 2 3.15306 7.24192 11.113 -0.019426 -0.0259142 0.00188749
21 2 11.602 9.94206 10.238 0.0258749 0.0422751 -0.00317348
22 1 10.1627 9.92805 11.5016 -0.00219411 -0.00169666 0.00518766
23 2 10.4106 10.6108 2.35375 -0.0209942 0.000947125 -0.00807689
24 2 9.74195 9.12127 11.8984 0.0101693 -0.0244771 -0.00635989
25 1 2.97301 9.61868 5.19645 -0.00301453 0.00503035 0.00416495
26 2 3.4409 10.5256 5.16955 -0.0340428 0.0210919 -0.000900352
27 2 4.41238 6.26144 3.23019 -0.00435428 -0.0153924 0.00721421
28 1 11.1721 5.84913 4.18376 -0.00463405 0.0049161 0.00208424
29 2 11.7247 5.55393 4.9563 0.0264574 -0.00858209 0.0245166
30 2 10.5512 6.33496 4.63166 -0.0154514 -0.0192056 -0.00151168
31 1 4.55796 11.6942 5.53452 0.00734286 0.0014067 0.00197892
32 2 3.89858 13.2216 5.85943 -0.0290986 0.0161688 0.00170914
33 2 5.21634 11.4666 4.76999 0.0053216 -0.0302237 0.00405059
34 1 4.73474 13.3588 9.64659 0.00155877 0.00811491 0.00503904
35 2 4.31027 12.9725 10.402 0.00339761 0.00463723 -0.00286026
36 2 5.55628 13.6955 10.0319 0.0290658 -0.00214177 0.0157473
37 1 8.29409 10.9357 9.78155 0.00660303 -0.00892851 0.00531752
38 2 8.91423 11.1887 9.02085 -0.012096 -0.00137955 -0.0192939
39 2 8.80886 10.5123 10.499 -0.017088 0.0115972 9.81268e-05
40 1 3.49295 4.30743 5.7162 0.00183659 -0.00166702 0.00175089
41 2 4.42438 5.14706 4.31005 0.00153085 0.00850874 0.0160561
42 2 12.4435 4.24296 6.10573 -0.00537694 -0.00335317 0.00675235
43 1 5.05745 5.76666 3.80541 -0.00173439 -0.00191845 0.00254663
44 2 3.03401 8.26344 3.64518 0.00657108 -0.00787507 0.000852456
45 2 8.22684 12.8997 5.04154 0.0103545 0.0172361 -0.00285022
46 1 9.64401 11.7425 7.47904 -0.00234451 0.00537567 0.000817771
47 2 9.0589 12.086 6.75665 0.011165 -0.00230941 -0.00212339
48 2 10.1787 10.9164 7.03659 -0.000181836 0.010895 0.0107257
49 1 9.38323 6.99239 9.27015 0.00254241 -0.00427256 -0.0116739
50 2 8.67004 6.53544 8.79028 -0.0142633 -0.00782308 -0.0107516
51 2 9.0001 7.40005 10.0752 -0.000604179 0.023 -0.00782192
52 1 10.9529 11.5941 3.62205 -0.00340069 -0.00400694 0.00186164
53 2 10.0511 11.7635 4.08614 -0.0327168 -0.00205896 0.00044934
54 2 11.4418 11.0898 4.29184 -0.00738198 0.0153868 0.00956499
55 1 6.03003 11.1407 3.35776 0.00493087 0.000972189 -0.00302006
56 2 5.79152 10.1967 3.3474 -0.0213144 -0.00997483 0.0143067
57 2 5.21924 11.6173 3.03283 0.0247866 -0.00963049 -0.000216521
58 1 6.60271 9.28612 8.58222 -0.00558874 -0.00337155 -0.00357776
59 2 4.77243 11.9431 8.68041 0.00731181 -0.034425 0.0245944
60 2 7.39647 9.76989 9.02783 -0.0299258 0.0104664 -0.00789794
61 1 7.07018 5.60186 8.57976 0.00290138 -0.00264282 -0.00238594
62 2 7.0725 5.37204 9.51137 -0.0093929 0.00496239 -0.000118622
63 2 6.18513 5.93602 8.29522 -0.0354223 0.00985601 -0.0163428
64 1 4.8808 11.126 8.02638 -0.00179568 0.00217557 -0.00316865
65 2 5.06109 11.4343 6.36701 -0.00736521 0.00999199 -0.0154203
66 2 4.20198 5.36533 6.88134 -0.00250916 -0.000482689 -0.00239266
67 1 10.7911 9.39056 6.96891 -0.00285911 0.00507391 -0.00250334
68 2 11.595 9.42663 6.40044 0.00921091 0.029111 0.00361389
69 2 11.1416 9.3239 7.93013 0.0136235 -0.0128574 -0.0141269
70 1 11.1537 4.16128 7.40468 0.00338601 -0.00283287 0.00020003
71 2 10.5813 13.1858 7.5494 0.0150697 -0.0140622 0.0134494
72 2 11.3749 4.47902 8.30362 0.0189462 0.000157552 0.00320495
73 1 9.00612 6.54747 6.41663 -0.00539059 -0.00369558 -0.00390189
74 2 8.76222 6.02686 7.13529 -0.00517264 0.0200981 0.00781388
75 2 9.66293 7.10596 6.81963 0.00319912 -0.0141414 0.0145992
76 1 11.4171 5.1976 9.89232 0.00485121 -0.0106555 -0.00460789
77 2 10.8078 5.91783 9.65547 -0.00717086 -0.0126772 0.0109798
78 2 3.39929 6.78199 9.63039 -0.0117939 0.0036857 0.0126242
79 1 12.1438 9.66195 9.45967 8.30275e-05 -0.00104038 -0.00183603
80 2 12.6693 8.89095 9.72544 -0.00914765 0.0182561 0.0132141
81 2 5.68176 10.6573 8.40592 0.0315517 0.00852879 0.000462702
82 1 6.73053 5.04476 11.3101 0.00801233 0.00120991 0.00699124
83 2 7.63893 4.80674 11.6204 0.0098918 -0.0117462 0.000434324
84 2 6.19289 4.94278 2.24257 0.0225793 -0.013913 -0.00814291
85 1 9.54614 4.28215 11.9086 0.0050516 -0.00152845 0.00113051
86 2 10.0827 4.65532 2.79862 0.0220063 0.00651476 -0.0183008
87 2 10.8308 4.67822 10.5088 -0.0228604 -0.00976755 -0.00314348
88 1 7.32988 13.2157 6.74974 -0.000481425 0.0029411 0.00147945
89 2 6.86844 12.6525 7.43378 -0.0217576 0.0280509 -0.00591313
90 2 7.39546 4.21149 7.14841 0.0309205 0.00665645 -0.00961238
91 1 4.97953 7.67572 5.6588 -0.00435411 -0.00173443 -0.0071809
92 2 3.72363 8.92265 5.37637 -0.00834473 0.00498598 0.0128838
93 2 4.61403 7.20361 6.46162 0.0290164 -0.0100354 -0.00138312
94 1 4.50123 5.75285 7.76173 -0.00656725 0.00150838 -0.00221552
95 2 4.28096 5.1266 8.45999 0.000832918 -0.0063106 0.00802253
96 2 5.0462 6.91345 4.88979 -0.0251002 0.0107338 0.0468294
ITEM: TIMESTEP
2
ITEM: NUMBER OF ATOMS
96
ITEM: BOX BOUNDS pp pp pp
2.9236100000000000e+00 1.2773600000000000e+01
4.0306300000000004e+00 1.3880599999999999e+01
2.1372399999999998e+00 1.1987200000000000e+01
ITEM: ATOMS id type x y z vx vy vz
1 1 8.51524 12.2734 4.33509 0.0108736 0.00061383 0.00422629
2 2 7.75661 11.9709 3.86084 0.00578596 0.0343784 -0.00848217
3 2 9.40963 13.2783 2.42219 -0.00176204 0.00774904 0.0233527
4 1 3.5261 11.8259 11.801 0.00202495 -0.000975794 0.00459534
5 2 3.2266 11.0919 11.2491 -0.0167029 0.000444251 0.00795575
6 2 12.5887 12.0564 2.41543 -0.0306523 0.037788 0.00187483
7 1 3.02475 7.46377 3.05672 -0.00465338 -0.00318129 -0.000772905
8 2 11.9082 7.0206 3.17905 -0.0152599 0.011535 -0.00244609
9 2 7.89548 7.71886 6.2242 0.00520469 0.0284596 0.0268268
10 1 7.39414 8.64994 6.11489 0.00258962 0.000545441 -0.0096992
11 2 6.49255 8.36704 5.78799 -0.00065378 0.0400665 0.0337285
12 2 6.86232 9.2093 7.58175 0.00268399 0.0206881 -0.0103488
13 1 5.90063 8.40242 2.47152 -1.37319e-05 -0.00155682 -0.00100283
14 2 5.49191 8.13754 11.4816 0.0246673 -0.0246368 0.00869986
15 2 5.48464 7.80028 3.03764 0.0200814 0.0104128 -0.000251095
16 1 8.9426 7.53903 2.51796 -0.00674134 0.00114756 -0.00182485
17 2 9.1547 6.62243 2.59818 -0.000204849 0.00716273 -0.000465662
18 2 8.01731 7.50628 2.54299 0.00643886 0.0065985 -0.00334577
19 1 3.64027 7.49422 10.2817 -0.00517637 0.0011019 -0.00170152
20 2 3.14384 7.22928 11.1135 -0.0170362 -0.0242603 -0.0002182
21 2 11.6149 9.96269 10.236 0.0256541 0.0402251 -0.00472709
22 1 10.1616 9.92719 11.5042 -0.00221378 -0.00175648 0.00497194
23 2 10.3998 10.6106 2.35019 -0.0219196 -0.00148354 -0.00586954
24 2 9.74741 9.10977 11.8955 0.0117573 -0.0211717 -0.00511116
25 1 2.9716 9.62111 5.1985 -0.00268199 0.00469946 0.00406479
26 2 3.42359 10.5353 5.16954 -0.034882 0.0174121 0.000961582
27 2 4.41031 6.25387 3.23379 -0.00392119 -0.014754 0.00709082
28 1 11.1699 5.8515 4.18478 -0.00412034 0.00455007 0.00208103
29 2 11.7377 5.54976 4.96734 0.0245795 -0.00760387 0.0186556
30 2 10.5414 6.32668 4.63204 -0.0234696 -0.0140608 0.00306764
31 1 4.56168 11.6949 5.53545 0.00754862 0.00136534 0.00168946
32 2 3.88376 13.2309 5.85994 -0.0295291 0.0199486 0.000427196
33 2 5.21889 11.4519 4.77249 0.00478127 -0.0286427 0.00589204
34 1 4.73555 13.3629 9.64906 0.00171631 0.00817468 0.00484852
35 2 4.31116 12.9742 10.4014 0.000159476 0.00235019 0.000587475
36 2 5.57114 13.6948 10.0397 0.0294338 -0.00132581 0.0150838
37 1 8.29737 10.9313 9.78414 0.00648299 -0.0087332 0.00498882
38 2 8.90787 11.1877 9.01199 -0.0132871 -0.00273033 -0.0157875
39 2 8.80114 10.518 10.4991 -0.0131812 0.0106457 0.000672452
40 1 3.49389 4.30655 5.71708 0.00184305 -0.00177913 0.00177828
41 2 4.42623 5.15181 4.3178 0.00595665 0.0104079 0.0148506
42 2 12.4406 4.24123 6.10956 -0.00620849 -0.00335293 0.00851549
43 1 5.05649 5.76564 3.8067 -0.00211147 -0.00216065 0.0026041
44 2 3.03697 8.25855 3.64513 0.00526136 -0.0115666 -0.000987868
45 2 8.23152 12.9077 5.03984 0.00852869 0.0147322 -0.00397638
46 1 9.6429 11.7451 7.47936 -0.00211205 0.00512047 0.000478277
47 2 9.06454 12.0845 6.75633 0.0110931 -0.00352232 0.00053182
48 2 10.1776 10.9228 7.04301 -0.00393346 0.0144849 0.0147545
49 1 9.38452 6.99028 9.26434 0.00259271 -0.00416302 -0.0115747
50 2 8.66253 6.53191 8.78576 -0.0154393 -0.00606358 -0.00697521
51 2 8.99987 7.41096 10.0707 -9.4598e-05 0.020369 -0.0108119
52 1 10.9512 11.5921 3.62302 -0.00347812 -0.00400603 0.00202661
53 2 10.0359 11.7623 4.08575 -0.0273176 -0.00292684 -0.00225537
54 2 11.4383 11.0973 4.29625 -0.00656154 0.0143185 0.0081962
55 1 6.03244 11.1413 3.35627 0.00474312 0.00110887 -0.00291649
56 2 5.78105 10.1915 3.35389 -0.0202885 -0.0100893 0.0116554
57 2 5.23211 11.6118 3.03206 0.026069 -0.0121521 -0.00305554
58 1 6.59997 9.28446 8.58041 -0.00539381 -0.00325406 -0.00369668
59 2 4.7759 11.9248 8.69117 0.00625064 -0.0383359 0.0184918
60 2 7.381 9.77491 9.02388 -0.0315466 0.00968671 -0.00758076
61 1 7.07171 5.60054 8.57848 0.00313055 -0.00260056 -0.00274642
62 2 7.06699 5.37458 9.51201 -0.0126509 0.00528961 0.00239127
63 2 6.16725 5.94075 8.28755 -0.0346826 0.00842159 -0.013941
64 1 4.87991 11.1273 8.02491 -0.00168368 0.00276683 -0.00266401
65 2 5.05698 11.4392 6.36018 -0.00872583 0.00952447 -0.0113295
66 2 4.20071 5.36444 6.88064 -0.0025374 -0.00310928 -0.000372652
67 1 10.7896 9.3931 6.96778 -0.0028812 0.00509045 -0.00203239
68 2 11.6002 9.44141 6.40174 0.0112613 0.0299746 0.00154624
69 2 11.1482 9.31779 7.92198 0.0125069 -0.0115457 -0.0182002
70 1 11.1554 4.15981 7.40475 0.00325107 -0.00306805 0.000100029
71 2 10.5893 13.179 7.5557 0.0167561 -0.0128077 0.0117229
72 2 11.3846 4.47956 8.3059 0.020044 0.00188384 0.00569796
73 1 9.00345 6.54565 6.41454 -0.00524925 -0.00354334 -0.00443738
74 2 8.75873 6.03574 7.14056 -0.00898097 0.015193 0.0131016
75 2 9.66508 7.09956 6.82727 0.00522104 -0.0115515 0.0155692
76 1 11.4195 5.19222 9.89006 0.00460317 -0.0108352 -0.00439364
77 2 10.8041 5.9124 9.6604 -0.00709105 -0.00898282 0.00859363
78 2 3.3937 6.78463 9.63755 -0.0105234 0.00667605 0.0155617
79 1 12.1438 9.66152 9.45874 -0.000251963 -0.000641016 -0.00189283
80 2 12.6655 8.89912 9.73243 -0.00613485 0.0140204 0.0149042
81 2 5.69773 10.6604 8.40594 0.0316619 0.00412807 -0.000900802
82 1 6.7346 5.04533 11.3136 0.00829847 0.00106223 0.00695132
83 2 7.64321 4.80101 11.6203 0.00728671 -0.0111084 -0.000880666
84 2 6.20404 4.93612 2.23878 0.0214697 -0.012811 -0.00636576
85 1 9.54871 4.28146 11.9092 0.00522772 -0.00123916 0.00131802
86 2 10.0932 4.65851 2.78859 0.0202504 0.00635044 -0.021638
87 2 10.8201 4.67318 10.5071 -0.0191932 -0.0103327 -0.00396464
88 1 7.32962 13.217 6.75049 -0.000557142 0.00247287 0.0014838
89 2 6.85819 12.6676 7.42981 -0.0194055 0.0320447 -0.00966305
90 2 7.41077 4.21566 7.14437 0.0302728 0.00989736 -0.00655606
91 1 4.97727 7.6748 5.65519 -0.00471035 -0.00194054 -0.00719958
92 2 3.71817 8.92655 5.38264 -0.0133046 0.0107567 0.012198
93 2 4.62938 7.19901 6.46014 0.0320751 -0.00821049 -0.00395591
94 1 4.49793 5.75367 7.7606 -0.00660377 0.00176572 -0.00224468
95 2 4.2813 5.12281 8.46385 0.000610093 -0.00860342 0.00711827
96 2 5.03364 6.91967 4.91434 -0.024851 0.0135293 0.0500755
ITEM: TIMESTEP
3
ITEM: NUMBER OF ATOMS
96
ITEM: BOX BOUNDS pp pp pp
2.9236100000000000e+00 1.2773600000000000e+01
4.0306300000000004e+00 1.3880599999999999e+01
2.1372399999999998e+00 1.1987200000000000e+01
ITEM: ATOMS id type x y z vx vy vz
1 1 8.52068 12.2738 4.33726 0.0108599 0.0009598 0.0044781
2 2 7.75839 11.9877 3.85646 0.00146106 0.0329918 -0.00911239
3 2 9.40854 13.2812 2.43414 -0.00259211 0.0041525 0.0244127
4 1 3.52716 11.8254 11.8032 0.00209824 -0.00104084 0.00448419
5 2 3.21839 11.0923 11.2531 -0.01605 0.00155357 0.0084058
6 2 12.5728 12.0753 2.41687 -0.0319215 0.0375943 0.00307809
7 1 3.02227 7.46216 3.05635 -0.00527169 -0.00327697 -0.000696637
8 2 11.9033 7.02727 3.17835 -0.00430869 0.0149711 -0.000337268
9 2 7.8978 7.73467 6.23772 0.00407987 0.033944 0.0270364
10 1 7.39547 8.65013 6.11006 0.00274678 0.000306631 -0.00960478
11 2 6.49214 8.38738 5.80484 -0.00138117 0.0407111 0.0333561
12 2 6.86369 9.21913 7.577 0.00270006 0.0185363 -0.00849466
13 1 5.90064 8.40167 2.47094 0.000110009 -0.00138487 -0.00133242
14 2 5.5044 8.12564 11.4861 0.0249758 -0.0231119 0.00899175
15 2 5.49415 7.80468 3.03865 0.0176071 0.00667956 0.00483372
16 1 8.9393 7.53963 2.51704 -0.0064027 0.00125107 -0.00188918
17 2 9.15505 6.62525 2.59795 0.00158145 0.00393498 -0.000411013
18 2 8.01879 7.51002 2.54135 -0.00103044 0.00829075 -0.00318957
19 1 3.63764 7.49468 10.2809 -0.00534354 0.000755253 -0.00163111
20 2 3.13602 7.21766 11.1128 -0.0139502 -0.0218637 -0.00282973
21 2 11.6276 9.98228 10.2333 0.0251841 0.0381521 -0.00605992
22 1 10.1605 9.92629 11.5066 -0.00224331 -0.00186847 0.00472616
23 2 10.3886 10.6093 2.34788 -0.0226765 -0.00367532 -0.00312421
24 2 9.75371 9.1001 11.8933 0.013464 -0.0173002 -0.0039003
25 1 2.97033 9.62338 5.20051 -0.00241925 0.00440337 0.00395877
26 2 3.40602 10.543 5.17051 -0.0350052 0.0136029 0.00297248
27 2 4.40846 6.24669 3.23728 -0.00349125 -0.013824 0.00676502
28 1 11.1679 5.85368 4.18584 -0.00354387 0.00416965 0.00218644
29 2 11.7493 5.54633 4.97495 0.0211097 -0.00572176 0.0110968
30 2 10.5277 6.3209 4.63473 -0.0308534 -0.00947549 0.00751476
31 1 4.5655 11.6956 5.53621 0.00771569 0.00130899 0.00130128
32 2 3.86905 13.2416 5.85986 -0.0286165 0.0217606 -0.0006545
33 2 5.22112 11.438 4.77589 0.0040498 -0.0269071 0.00764268
34 1 4.73646 13.367 9.65144 0.00198006 0.0082672 0.00471874
35 2 4.31043 12.9748 10.4026 -0.00293547 0.000179075 0.00392275
36 2 5.58571 13.6942 10.047 0.027954 -0.00113537 0.0137184
37 1 8.30057 10.927 9.78654 0.00628257 -0.00847208 0.00456527
38 2 8.90095 11.186 9.00506 -0.0143355 -0.00431901 -0.0116441
39 2 8.79568 10.523 10.4997 -0.00819582 0.0090455 0.00210627
40 1 3.4948 4.30565 5.71798 0.00174071 -0.00179392 0.0018096
41 2 4.43034 5.15747 4.3249 0.010425 0.0120865 0.0135943
42 2 12.4373 4.23961 6.11424 -0.00691194 -0.00291231 0.0101233
43 1 5.05534 5.7645 3.80801 -0.00247778 -0.00242608 0.00265773
44 2 3.03927 8.25187 3.64419 0.00397602 -0.0148835 -0.00260854
45 2 8.23537 12.9145 5.03757 0.00699112 0.0121869 -0.00508153
46 1 9.6419 11.7476 7.47952 -0.00187594 0.0048882 0.000206926
47 2 9.07 12.0825 6.75718 0.0103572 -0.00427662 0.00250846
48 2 10.1748 10.9309 7.05135 -0.0071632 0.0173012 0.0183646
49 1 9.38582 6.98822 9.25858 0.00256892 -0.0040576 -0.011454
50 2 8.6546 6.52938 8.78331 -0.0159681 -0.00386265 -0.00254629
51 2 9 7.42042 10.0644 0.000831458 0.0172946 -0.014572
52 1 10.9494 11.5901 3.62408 -0.00359715 -0.00397556 0.00218847
53 2 10.0238 11.7606 4.08389 -0.0204435 -0.00421799 -0.00531721
54 2 11.4352 11.1042 4.30004 -0.00573824 0.0130908 0.007047
55 1 6.03477 11.1418 3.35484 0.00459933 0.00111423 -0.00277404
56 2 5.77123 10.1866 3.35905 -0.0186707 -0.00911672 0.00900274
57 2 5.24531 11.6052 3.02977 0.0260658 -0.013651 -0.0063224
58 1 6.59732 9.28286 8.57852 -0.00523878 -0.00313319 -0.00388998
59 2 4.77868 11.9048 8.6989 0.00454014 -0.0410903 0.0126031
60 2 7.36492 9.77957 9.02024 -0.0323734 0.00909427 -0.00666106
61 1 7.07331 5.59926 8.57702 0.00317601 -0.00249546 -0.00311716
62 2 7.05985 5.37733 9.51376 -0.0158502 0.00575921 0.00424483
63 2 6.15044 5.94445 8.28128 -0.0312992 0.00585325 -0.0108274
64 1 4.87912 11.1288 8.02372 -0.00144527 0.00325274 -0.00209107
65 2 5.05237 11.4438 6.35568 -0.00942474 0.00878932 -0.00622251
66 2 4.19944 5.36222 6.88096 -0.00251499 -0.00574091 0.00165517
67 1 10.7882 9.39565 6.96687 -0.00283435 0.00510095 -0.00160622
68 2 11.6063 9.4566 6.40198 0.0125987 0.0307295 -0.000589195
69 2 11.1541 9.31235 7.91193 0.0109986 -0.0102348 -0.0215989
70 1 11.157 4.15821 7.40478 0.00312657 -0.00330083 4.28608e-05
71 2 10.5981 13.173 7.56112 0.0185439 -0.0112163 0.00996352
72 2 11.3949 4.48091 8.30932 0.0208868 0.00337493 0.00761551
73 1 9.00087 6.54392 6.41219 -0.00505552 -0.0033753 -0.0048842
74 2 8.75324 6.04205 7.14839 -0.0129818 0.0101836 0.0176483
75 2 9.66815 7.09441 6.8352 0.00673718 -0.0092875 0.0157101
76 1 11.4217 5.18676 9.88792 0.00425977 -0.0110172 -0.00414012
77 2 10.8007 5.90884 9.66406 -0.00643749 -0.00535245 0.0059667
78 2 3.38876 6.78867 9.64595 -0.00921714 0.00917636 0.0174366
79 1 12.1436 9.66131 9.45778 -0.000597355 -0.000197848 -0.00197621
80 2 12.6632 8.90497 9.74034 -0.00271184 0.00920047 0.0168178
81 2 5.71342 10.6614 8.40502 0.0303987 -8.5232e-05 -0.00325682
82 1 6.73883 5.04582 11.317 0.00862716 0.000922103 0.00683163
83 2 7.64621 4.79563 11.6196 0.00487058 -0.0104327 -0.0022147
84 2 6.21436 4.92997 2.23621 0.0193732 -0.0118266 -0.00334565
85 1 9.55137 4.28091 11.9099 0.00539265 -0.000965133 0.00147837
86 2 10.1029 4.66167 2.77698 0.0187102 0.00635927 -0.0245303
87 2 10.8116 4.66789 10.5048 -0.014584 -0.0107887 -0.00530679
88 1 7.32932 13.2182 6.75123 -0.000604506 0.00206998 0.0014481
89 2 6.84904 12.6845 7.42412 -0.017481 0.0354841 -0.0126582
90 2 7.42574 4.22139 7.14185 0.0295407 0.0127238 -0.0036159
91 1 4.97482 7.67378 5.6516 -0.005064 -0.00206141 -0.00711888
92 2 3.71033 8.93341 5.38857 -0.0176619 0.0165935 0.0115443
93 2 4.6461 7.1954 6.45766 0.0345122 -0.00614787 -0.00521887
94 1 4.49462 5.75461 7.75948 -0.00662342 0.00199195 -0.00221237
95 2 4.28157 5.11799 8.46711 0.000557954 -0.0104049 0.00561269
96 2 5.02135 6.92698 4.93986 -0.0240493 0.0149757 0.05061
ITEM: TIMESTEP
4
ITEM: NUMBER OF ATOMS
96
ITEM: BOX BOUNDS pp pp pp
2.9236100000000000e+00 1.2773600000000000e+01
4.0306300000000004e+00 1.3880599999999999e+01
2.1372399999999998e+00 1.1987200000000000e+01
ITEM: ATOMS id type x y z vx vy vz
1 1 8.5261 12.2744 4.33957 0.010755 0.0013227 0.0047377
2 2 7.75807 12.0039 3.85173 -0.0024776 0.0315224 -0.00978812
3 2 9.40704 13.2825 2.44661 -0.00331945 0.000990098 0.0253612
4 1 3.5282 11.8249 11.8055 0.0019849 -0.00106134 0.00444806
5 2 3.21055 11.0934 11.2575 -0.0152259 0.00296831 0.00912208
6 2 12.5568 12.094 2.41851 -0.0304454 0.0364294 0.00275797
7 1 3.01948 7.4605 3.05602 -0.00587094 -0.00338583 -0.000646631
8 2 11.9039 7.03557 3.17871 0.00607927 0.0179434 0.00178299
9 2 7.89956 7.75281 6.25124 0.00299196 0.0376448 0.0269
10 1 7.39689 8.65024 6.10529 0.00294645 0.000258903 -0.00946091
11 2 6.49117 8.40775 5.82135 -0.00289877 0.0401753 0.0324223
12 2 6.86502 9.22784 7.57326 0.00258315 0.0162476 -0.00630755
13 1 5.90074 8.40103 2.47019 0.000298293 -0.00114967 -0.00163839
14 2 5.51689 8.11443 11.4906 0.0247065 -0.0219041 0.00814764
15 2 5.50225 7.80696 3.04247 0.014654 0.00217677 0.0107081
16 1 8.93619 7.54028 2.51607 -0.00602077 0.00137028 -0.0019567
17 2 9.15628 6.62637 2.59777 0.00319719 0.000610242 -0.000337067
18 2 8.01628 7.51457 2.5398 -0.00898899 0.00980092 -0.00299368
19 1 3.63493 7.49497 10.2801 -0.00553348 0.000410059 -0.00146593
20 2 3.12989 7.20741 11.1107 -0.0103793 -0.0188512 -0.00568824
21 2 11.6401 10.0008 10.23 0.0245063 0.0360631 -0.00719159
22 1 10.1594 9.92532 11.5089 -0.00227729 -0.0020204 0.00444996
23 2 10.3771 10.607 2.34707 -0.0232503 -0.00555786 9.3333e-05
24 2 9.76087 9.09247 11.8916 0.0151506 -0.0131475 -0.00268392
25 1 2.96918 9.62551 5.20246 -0.00225455 0.00415212 0.00384157
26 2 3.38858 10.5489 5.17251 -0.0343732 0.00999657 0.00508535
27 2 4.40681 6.24004 3.24056 -0.00310968 -0.0126534 0.00624092
28 1 11.1663 5.85567 4.18697 -0.00297167 0.00381073 0.0023985
29 2 11.7588 5.54404 4.97843 0.0163811 -0.00314413 0.00239656
30 2 10.5106 6.31721 4.63955 -0.0369246 -0.00591557 0.0114016
31 1 4.5694 11.6962 5.53675 0.00784609 0.00123884 0.000834235
32 2 3.85514 13.2526 5.85928 -0.0263332 0.0214089 -0.0015258
33 2 5.22294 11.425 4.78013 0.00318551 -0.0250426 0.00928528
34 1 4.73753 13.3712 9.65378 0.00232757 0.00837934 0.00466686
35 2 4.30822 12.9744 10.4054 -0.00565428 -0.00169989 0.00681138
36 2 5.59909 13.6936 10.0535 0.0247359 -0.0015007 0.0117404
37 1 8.30366 10.9228 9.7887 0.00600993 -0.00816207 0.00407419
38 2 8.89354 11.1834 9.00034 -0.0151483 -0.0060516 -0.00708592
39 2 8.79295 10.527 10.5012 -0.00236086 0.00693965 0.0042395
40 1 3.49563 4.30476 5.71889 0.00152391 -0.00170169 0.00184532
41 2 4.43666 5.1639 4.33139 0.0146685 0.013368 0.0124737
42 2 12.4337 4.23831 6.11969 -0.0074214 -0.00203435 0.0115453
43 1 5.05401 5.76322 3.80935 -0.00281166 -0.00270094 0.00269325
44 2 3.04095 8.24367 3.64252 0.00281349 -0.017501 -0.00379933
45 2 8.23852 12.9199 5.03476 0.00574031 0.00967032 -0.00608188
46 1 9.64102 11.75 7.47956 -0.00164485 0.00469272 1.86992e-05
47 2 9.0749 12.0802 6.75884 0.00890042 -0.00452897 0.00368727
48 2 10.1705 10.9401 7.06137 -0.00971024 0.0191484 0.0213927
49 1 9.38709 6.98622 9.25288 0.00248746 -0.00395788 -0.0113214
50 2 8.64656 6.52804 8.78321 -0.0159679 -0.0013855 0.00230909
51 2 9.0007 7.42825 10.0561 0.0020933 0.0139777 -0.0187286
52 1 10.9476 11.5881 3.62521 -0.00373012 -0.00392063 0.00233184
53 2 10.0154 11.7581 4.08043 -0.0125474 -0.00584434 -0.00850898
54 2 11.4326 11.1104 4.3033 -0.004888 0.0116969 0.00615112
55 1 6.03704 11.1424 3.3535 0.00450286 0.000992985 -0.00259275
56 2 5.76237 10.1824 3.36289 -0.0164662 -0.00718314 0.00636486
57 2 5.25817 11.5981 3.02574 0.0247496 -0.0140787 -0.0100064
58 1 6.59473 9.28133 8.57652 -0.00512758 -0.00301274 -0.00415023
59 2 4.78044 11.8837 8.70378 0.00223927 -0.0424706 0.00729862
60 2 7.34863 9.784 9.01722 -0.0323667 0.00874512 -0.00513065
61 1 7.07489 5.59804 8.57537 0.00305602 -0.00234033 -0.00347752
62 2 7.05114 5.38034 9.51626 -0.0188796 0.00636113 0.005325
63 2 6.13595 5.9466 8.27672 -0.0256783 0.00234759 -0.00722443
64 1 4.87847 11.1305 8.02282 -0.00108902 0.00361363 -0.00148398
65 2 5.04756 11.448 6.35396 -0.00955809 0.00785826 -0.000363835
66 2 4.1982 5.3587 6.88229 -0.00243534 -0.00831844 0.00358713
67 1 10.7868 9.3982 6.96617 -0.00271251 0.00510438 -0.00124758
68 2 11.6128 9.47214 6.40115 0.0130486 0.031347 -0.00265618
69 2 11.1592 9.30756 7.90038 0.00921054 -0.00897926 -0.0240953
70 1 11.1585 4.15651 7.40479 0.00302318 -0.00351762 3.45662e-05
71 2 10.6078 13.1678 7.56566 0.0203658 -0.00937726 0.00823269
72 2 11.4055 4.48293 8.31352 0.0213927 0.00454395 0.00882629
73 1 8.99839 6.54228 6.40965 -0.0048142 -0.00320771 -0.00519345
74 2 8.74575 6.04592 7.15821 -0.0168088 0.0056705 0.0207539
75 2 9.67182 7.09027 6.84298 0.00742586 -0.00766158 0.0149579
76 1 11.4237 5.18121 9.88592 0.00383198 -0.0111839 -0.00386574
77 2 10.7977 5.90705 9.66637 -0.00516457 -0.00203624 0.0032439
78 2 3.38448 6.7938 9.65499 -0.00797494 0.0109291 0.0180192
79 1 12.1432 9.66132 9.45677 -0.00093495 0.000260044 -0.00207551
80 2 12.6627 8.90832 9.74925 0.000816739 0.00423082 0.0188126