ITEM: TIMESTEP
0
ITEM: NUMBER OF ATOMS
96
ITEM: BOX BOUNDS pp pp pp
2.9236100000000000e+00 1.2773600000000000e+01
4.0306300000000004e+00 1.3880599999999999e+01
2.1372399999999998e+00 1.1987200000000000e+01
ITEM: ATOMS id type x y z vx vy vz
1 1 8.47277 12.2743 4.31989 -0.0106327 0.000447569 -0.00404992
2 2 7.68719 11.8292 3.90626 -0.0187892 -0.0310937 0.0194955
3 2 9.40752 13.2126 2.3388 -0.000954933 -0.0147085 -0.0207995
4 1 3.52538 11.8283 11.7784 0.00166392 0.000396693 -0.0065626
5 2 3.29557 11.0894 11.2086 0.0161891 -0.00208571 -0.0132736
6 2 12.604 11.9279 2.48095 -0.0209068 -0.0274938 0.0327145
7 1 3.03778 7.47659 3.06076 0.00350335 0.00374712 0.000884993
8 2 12.0795 7.00753 3.21754 0.0434306 -0.00805724 0.0161805
9 2 7.87842 7.7329 6.14728 0.00475388 0.0321198 -0.00604774
10 1 7.38342 8.63724 6.15131 -0.0034047 -0.00625671 0.00765337
11 2 6.50674 8.27284 5.68129 0.00801816 0.00169474 -0.0131131
12 2 6.86052 9.10018 7.63184 0.003361 -0.032144 0.0108489
13 1 5.89869 8.40707 2.4719 -0.0015209 0.000134441 -0.000177273
14 2 5.41923 8.26535 11.4899 -0.0105649 0.0379604 0.014137
15 2 5.41093 7.76739 3.05387 -0.00788949 0.00655821 -0.00382194
16 1 8.96942 7.53345 2.52468 0.00548974 -0.00219457 0.00163706
17 2 9.17456 6.58475 2.59691 0.00709291 -0.00214137 -0.00191476
18 2 7.96719 7.50967 2.55551 0.00207413 0.00822193 0.00221101
19 1 3.66124 7.487 10.2849 0.00604234 -0.00155891 -0.000804575
20 2 3.21941 7.32604 11.1092 0.0117053 0.0168258 0.00644297
21 2 11.5176 9.77245 10.2236 -0.020937 -0.0528088 -0.0120798
22 1 10.1707 9.93522 11.4819 0.00245582 0.00276133 -0.00572046
23 2 10.4699 10.5781 2.38855 0.0130777 -0.0157092 0.00671968
24 2 9.71417 9.21538 11.9369 -0.00901801 0.0212326 0.0146502
25 1 2.98769 9.59685 5.18053 0.00494091 -0.00723696 -0.00499792
26 2 3.53412 10.4357 5.18883 0.0177331 -0.019966 0.00862402
27 2 4.43162 6.30972 3.21018 0.00648772 0.00856876 -0.00223604
28 1 11.1882 5.83088 4.17378 0.00280124 -0.00437074 -0.0037034
29 2 11.6751 5.55644 4.8802 0.00889485 -0.0139402 -0.00333498
30 2 10.5372 6.44086 4.66155 -0.00749314 0.0272089 0.00368778
31 1 4.53577 11.6892 5.52779 -0.00524852 -0.0013395 -0.00108701
32 2 3.96342 13.2449 5.83462 0.00467406 0.0289575 -0.0119889
33 2 5.19907 11.5851 4.78104 -0.00252297 0.0355945 0.0105802
34 1 4.72753 13.3297 9.62667 -0.00312826 -0.00879237 -0.00588196
35 2 4.27206 12.9378 10.4323 -0.0123416 -0.010911 0.00556386
36 2 5.50408 13.73 9.9889 0.00198767 0.018541 -0.00657377
37 1 8.27235 10.9665 9.76295 -0.00519759 0.00803675 -0.00439209
38 2 8.94219 11.1909 9.09804 0.00449232 0.0040788 0.01554
39 2 8.87201 10.4845 10.4794 0.00846733 0.00044052 -0.0146881
40 1 3.48909 4.31023 5.7102 -0.000151602 -1.31212e-06 -0.00175553
41 2 4.45733 5.13743 4.24997 0.0149 0.000716557 -0.0149552
42 2 12.4513 4.24231 6.10694 -0.00061145 -0.00579272 0.00776251
43 1 5.05976 5.77197 3.79661 -5.1509e-05 0.00158047 -0.00270921
44 2 3.0003 8.25879 3.62796 -0.0105908 -0.00309504 -0.00457946
45 2 8.16087 12.8164 5.04496 -0.0280308 -0.0272911 0.00237701
46 1 9.65442 11.721 7.47159 0.00336732 -0.0065155 -0.00307764
47 2 9.02942 12.0721 6.8028 -0.00653452 -0.00966902 0.0216796
48 2 10.1324 10.927 7.04569 -0.0228859 0.0125837 0.011317
49 1 9.37778 7.00869 9.31102 -9.41301e-05 0.00500766 0.0113883
50 2 8.68287 6.56349 8.84368 -0.0102149 0.00383662 0.0129764
51 2 8.99288 7.30982 10.1092 -0.00723519 -0.0235947 0.0218715
52 1 10.967 11.6069 3.61649 0.00549232 0.00300544 -0.00171854
53 2 10.1648 11.7766 4.07763 0.0169104 0.0088146 0.00311804
54 2 11.4768 11.0285 4.23772 0.0116555 -0.018041 -0.0214537
55 1 6.00967 11.1423 3.36857 -0.00672163 0.00212636 0.00299367
56 2 5.86378 10.1991 3.26582 0.0183019 -0.0117285 -0.031676
57 2 5.17698 11.5983 3.00989 0.003007 -0.0220681 -0.0118033
58 1 6.62532 9.29894 8.59572 0.00729943 0.00377784 0.00459915
59 2 4.75451 12.0003 8.53786 0.000889541 0.000408414 -0.0482278
60 2 7.46415 9.72395 9.04405 0.00757481 -0.0142165 -0.000636637
61 1 7.0684 5.60926 8.58543 0.00257381 0.00117431 0.00143034
62 2 7.06936 5.35672 9.54534 -0.00950079 -0.00318472 0.0148485
63 2 6.23046 5.92199 8.35301 -0.0217256 0.00735249 0.011749
64 1 4.88486 11.1269 8.03977 1.35154e-05 0.00234031 0.00347427
65 2 5.04813 11.4048 6.42872 -0.0184544 -0.00439728 0.0101928
66 2 4.21041 5.34003 6.9076 0.00283626 -0.0126061 0.0100356
67 1 10.7995 9.37288 6.98292 0.00189691 -0.00516455 0.00494182
68 2 11.5935 9.33783 6.37589 0.00590264 -0.0210193 -0.00529786
69 2 11.0987 9.38162 7.92687 -0.00598412 0.0189164 -0.0122175
70 1 11.1406 4.16918 7.40227 -0.00385999 0.00204749 -0.00105556
71 2 10.5437 13.2378 7.48688 -0.00781373 0.0131546 -0.0200914
72 2 11.3225 4.49799 8.32575 -0.0124788 0.00849993 0.0126518
73 1 9.02527 6.56082 6.4244 0.00538379 0.00351833 0.00119354
74 2 8.75797 5.93623 7.15122 -0.000518928 -0.0184999 0.00655731
75 2 9.67094 7.17672 6.79644 0.00318774 0.0206716 0.00239074
76 1 11.4002 5.23393 9.90872 -0.0042228 0.0105273 0.00411608
77 2 10.8218 5.99044 9.60615 -0.000385775 0.0217285 -0.0112675
78 2 3.44796 6.79999 9.6348 0.0129152 0.00824654 0.0132321
79 1 12.1408 9.66741 9.46667 -0.00116082 0.00118645 0.00244337
80 2 12.7099 8.81662 9.68688 0.00660703 -0.0128292 -0.012099
81 2 5.60795 10.5761 8.41969 -0.00706135 -0.0342949 0.0135233
82 1 6.70347 5.03885 11.2873 -0.00811591 -0.00206391 -0.00578495
83 2 7.58287 4.85033 11.6092 -0.0163804 0.0112959 -0.00344444
84 2 6.13283 5.0066 2.25178 -0.00673952 0.022302 -0.00911398
85 1 9.53007 4.28962 11.9072 -0.00441502 0.00212386 0.000175408
86 2 9.9884 4.63054 2.82417 -0.0284367 -0.00624051 0.00085186
87 2 10.9153 4.70269 10.5302 0.0162778 0.00453285 0.012973
88 1 7.33063 13.2005 6.74564 8.9371e-05 -0.0049823 -0.00075559
89 2 6.97213 12.6015 7.4051 0.0341254 -0.00640869 -0.0179989
90 2 7.28149 4.21544 7.20828 -0.0333174 0.00170241 0.0192997
91 1 4.99145 7.67789 5.6802 0.00290941 -0.000472524 0.00421477
92 2 3.69774 8.94066 5.32907 -0.0172331 0.00178759 -0.0118442
93 2 4.5597 7.24603 6.42054 -0.00340864 0.0085853 -0.0209194
94 1 4.5231 5.75096 7.76782 0.00575751 0.000252543 0.00120231
95 2 4.2734 5.11263 8.43985 -0.00272291 -0.0133804 -0.000570917
96 2 5.11854 6.93565 4.83089 0.0125588 0.0248132 0.0211965
ITEM: TIMESTEP
1
ITEM: NUMBER OF ATOMS
96
ITEM: BOX BOUNDS pp pp pp
2.9236100000000000e+00 1.2773600000000000e+01
4.0306300000000004e+00 1.3880599999999999e+01
2.1372399999999998e+00 1.1987200000000000e+01
ITEM: ATOMS id type x y z vx vy vz
1 1 8.46742 12.2745 4.31781 -0.0107806 0.000331169 -0.00426867
2 2 7.67837 11.8142 3.91671 -0.0161535 -0.0287543 0.0221931
3 2 9.40713 13.206 2.32829 -0.000543894 -0.0113198 -0.0212563
4 1 3.52626 11.8285 11.7751 0.00177305 0.000402158 -0.0065619
5 2 3.30352 11.0884 11.2019 0.0155938 -0.0018903 -0.0135002
6 2 12.5932 11.9142 2.49745 -0.0210776 -0.0276034 0.0322604
7 1 3.03965 7.47853 3.06116 0.00402763 0.00403761 0.000705696
8 2 12.0995 7.00219 3.22607 0.0356994 -0.0139251 0.0180377
9 2 7.88189 7.74997 6.14529 0.00942467 0.0352224 -0.00194549
10 1 7.38164 8.63395 6.15501 -0.00372215 -0.00682093 0.00712563
11 2 6.51102 8.2755 5.67583 0.00910179 0.00879326 -0.00873036
12 2 6.86249 9.0839 7.63702 0.0045103 -0.032876 0.00990399
13 1 5.89786 8.40707 2.47183 -0.00175794 -0.000126297 -6.04105e-05
14 2 5.41427 8.28453 11.4974 -0.00956074 0.0385893 0.0154539
15 2 5.40793 7.77198 3.05111 -0.00428633 0.0115471 -0.00705899
16 1 8.97204 7.53229 2.5255 0.00501028 -0.00244759 0.00164119
17 2 9.1781 6.58449 2.59583 0.00699675 0.00102614 -0.00239721
18 2 7.96995 7.51418 2.55653 0.00895291 0.00969337 0.0018926
19 1 3.66435 7.4863 10.2844 0.00639336 -0.00121092 -0.001221
20 2 3.22445 7.33371 11.1132 0.00844223 0.0138082 0.00960587
21 2 11.5074 9.74592 10.217 -0.0201215 -0.0531067 -0.0140664
22 1 10.1719 9.93666 11.4791 0.00251184 0.00299682 -0.00559577
23 2 10.4762 10.57 2.39136 0.0123051 -0.0163912 0.00426998
24 2 9.70941 9.22517 11.9443 -0.0100531 0.0178314 0.0146841
25 1 2.99017 9.59319 5.17799 0.00492897 -0.00738974 -0.00515235
26 2 3.54237 10.4268 5.19329 0.0153266 -0.0152235 0.00918775
27 2 4.43493 6.3134 3.20947 0.00679183 0.0060773 -0.000494717
28 1 11.1894 5.82882 4.1719 0.00192383 -0.00385339 -0.0037666
29 2 11.6813 5.5483 4.88023 0.015514 -0.018308 0.00292737
30 2 10.5344 6.45316 4.66231 -0.00317773 0.0213681 -0.000944793
31 1 4.53322 11.6885 5.52734 -0.00497962 -0.00129445 -0.000687959
32 2 3.96482 13.2605 5.82838 0.00127941 0.0325341 -0.0128024
33 2 5.19812 11.6029 4.78682 -0.00111536 0.0353965 0.012277
34 1 4.72588 13.3253 9.62376 -0.00344036 -0.00892088 -0.00570582
35 2 4.26625 12.9326 10.4342 -0.0105607 -0.00970557 0.00182732
36 2 5.50594 13.7397 9.98599 0.00467635 0.0199452 -0.00527251
37 1 8.26986 10.9704 9.76087 -0.00476029 0.00767325 -0.00392779
38 2 8.94423 11.1935 9.10475 0.00364022 0.00640997 0.0109723
39 2 8.87498 10.4855 10.4714 0.00313751 0.00357859 -0.0171643
40 1 3.48907 4.3102 5.70931 4.99488e-05 -5.74909e-05 -0.00179936
41 2 4.4648 5.13784 4.24285 0.0146955 0.000722437 -0.013408
42 2 12.4508 4.23894 6.11135 -0.00112262 -0.00770665 0.00982195
43 1 5.05971 5.77279 3.79522 -0.000126816 0.00173125 -0.00284847
44 2 2.99508 8.25771 3.62603 -0.0102039 -0.000817624 -0.00293235
45 2 8.14624 12.8027 5.04651 -0.0303091 -0.0271387 0.00399139
46 1 9.65611 11.7178 7.47003 0.00339123 -0.00641324 -0.00310294
47 2 9.02605 12.067 6.81388 -0.00729685 -0.01045 0.0222239
48 2 10.1207 10.9334 7.05148 -0.0233623 0.0121238 0.0112988
49 1 9.37784 7.01121 9.31668 0.000315543 0.00508078 0.011258
50 2 8.67679 6.56497 8.84974 -0.0137807 0.00218711 0.0113131
51 2 8.98888 7.29838 10.1214 -0.00852776 -0.0222103 0.0269481
52 1 10.9699 11.6083 3.6156 0.006105 0.00275196 -0.00186378
53 2 10.1714 11.7815 4.08001 0.00963692 0.0107886 0.00649417
54 2 11.4826 11.0196 4.22661 0.0114875 -0.017562 -0.0229096
55 1 6.00625 11.1435 3.37005 -0.00693022 0.0024785 0.00293857
56 2 5.87278 10.1925 3.24947 0.0178157 -0.0142138 -0.033578
57 2 5.17944 11.5862 3.00364 0.0064325 -0.0259567 -0.0131569
58 1 6.62902 9.30082 8.59809 0.00746555 0.00371867 0.0048898
59 2 4.75554 11.9998 8.51392 0.00328246 -0.0017584 -0.0468914
60 2 7.4672 9.71694 9.04333 0.00491801 -0.0136369 -0.00215148
61 1 7.0699 5.60977 8.58617 0.00333107 0.00088434 0.00155283
62 2 7.06413 5.35531 9.55259 -0.0112805 -0.00232894 0.013557
63 2 6.21716 5.9265 8.35844 -0.0303864 0.0102941 0.0101464
64 1 4.88478 11.1282 8.04142 -0.000326617 0.00264733 0.00310935
65 2 5.03776 11.403 6.43279 -0.0228477 -0.00284676 0.00597418
66 2 4.21192 5.33354 6.91261 0.00329584 -0.0131466 0.00983262
67 1 10.8004 9.37028 6.9854 0.00179189 -0.00526591 0.00492809
68 2 11.5966 9.32768 6.37374 0.00614511 -0.0195303 -0.00302864
69 2 11.0965 9.39117 7.92043 -0.00271821 0.0192467 -0.0129945
70 1 11.1387 4.17022 7.40174 -0.00379919 0.00212967 -0.00105976
71 2 10.5399 13.2441 7.47684 -0.0073348 0.0121366 -0.0199059
72 2 11.3163 4.50221 8.33215 -0.0125737 0.00812763 0.0125312
73 1 9.02796 6.56253 6.42498 0.00537308 0.00332746 0.00114805
74 2 8.75819 5.92836 7.1539 0.00163347 -0.0125235 0.00373934
75 2 9.6722 7.18662 6.79822 0.00157186 0.0185842 0.0046449
76 1 11.3982 5.23923 9.9107 -0.00396026 0.0106813 0.00378395
77 2 10.8213 6.00084 9.60113 -0.00168407 0.0195136 -0.00851397
78 2 3.45411 6.80379 9.64193 0.0114857 0.00642174 0.014863
79 1 12.1402 9.66792 9.46794 -0.00110071 0.000824559 0.00262433
80 2 12.7125 8.81146 9.68057 0.0034917 -0.00753476 -0.0132418
81 2 5.60532 10.5586 8.42726 -0.00388893 -0.0351629 0.0166065
82 1 6.69935 5.0378 11.2845 -0.00838713 -0.00212447 -0.00563133
83 2 7.57514 4.85576 11.6077 -0.0141655 0.0103521 -0.00262446
84 2 6.13029 5.018 2.24629 -0.00363805 0.0232572 -0.0125631
85 1 9.52785 4.29064 11.9073 -0.00447444 0.00191549 0.000213422
86 2 9.97439 4.62763 2.82461 -0.0273388 -0.00525713 0.00139078
87 2 10.9224 4.70489 10.5373 0.0120813 0.00449836 0.0152959
88 1 7.33068 13.198 6.74529 0.000121605 -0.00479529 -0.000663019
89 2 6.98917 12.5983 7.39594 0.0336812 -0.00717822 -0.0180192
90 2 7.26487 4.21577 7.21767 -0.033053 -0.000792724 0.0179283
91 1 4.9929 7.6776 5.68212 0.00292878 -0.00064663 0.00347166
92 2 3.68897 8.94032 5.32342 -0.0173407 -0.0038051 -0.0106443
93 2 4.55855 7.24961 6.41005 -0.00162929 0.00530377 -0.0202658
94 1 4.52593 5.75112 7.76839 0.00555608 0.00034457 0.00111181
95 2 4.27212 5.1055 8.43999 -0.00221753 -0.0147624 0.00102402
96 2 5.12408 6.9492 4.84423 0.00963275 0.0289407 0.0315412
ITEM: TIMESTEP
2
ITEM: NUMBER OF ATOMS
96
ITEM: BOX BOUNDS pp pp pp
2.9236100000000000e+00 1.2773600000000000e+01
4.0306300000000004e+00 1.3880599999999999e+01
2.1372399999999998e+00 1.1987200000000000e+01
ITEM: ATOMS id type x y z vx vy vz
1 1 8.46199 12.2746 4.31562 -0.0109692 0.000183978 -0.00449674
2 2 7.67104 11.8004 3.92845 -0.0129226 -0.0263408 0.0245929
3 2 9.40698 13.2013 2.31754 -3.87195e-05 -0.0074482 -0.0216733
4 1 3.52715 11.8287 11.7718 0.00172756 0.000407924 -0.00646279
5 2 3.31116 11.0875 11.1951 0.0149467 -0.00137088 -0.0134284
6 2 12.5829 11.9003 2.51321 -0.0187424 -0.0279711 0.0298139
7 1 3.04181 7.48063 3.06147 0.00461558 0.00435706 0.000493168
8 2 12.1152 6.9936 3.23558 0.0267958 -0.0207652 0.0200281
9 2 7.88784 7.76812 6.14533 0.0145891 0.0363969 0.00198755
10 1 7.3797 8.63042 6.15844 -0.00405096 -0.00721795 0.0065945
11 2 6.51584 8.28163 5.67256 0.010147 0.0153956 -0.00448012
12 2 6.86503 9.0673 7.64174 0.00560428 -0.0334273 0.00904892
13 1 5.89693 8.40694 2.47184 -0.00191954 -0.000322808 9.32004e-05
14 2 5.40967 8.30394 11.5054 -0.00920491 0.0388862 0.015719
15 2 5.40664 7.77894 3.04681 -0.00117934 0.0158454 -0.00980762
16 1 8.97443 7.531 2.52632 0.00455347 -0.00266679 0.00164229
17 2 9.18156 6.58578 2.59451 0.00677522 0.00391555 -0.00283549
18 2 7.97614 7.51936 2.5574 0.015553 0.0109056 0.0016035
19 1 3.66763 7.48579 10.2837 0.0067521 -0.000793972 -0.00157078
20 2 3.22785 7.33985 11.1188 0.00531718 0.0107855 0.012389
21 2 11.4975 9.71934 10.2095 -0.0196021 -0.0529695 -0.0157437
22 1 10.1732 9.93822 11.4763 0.00255224 0.00320252 -0.00540397
23 2 10.4822 10.5617 2.39282 0.0117237 -0.0165887 0.0014016
24 2 9.70412 9.23321 11.9516 -0.0110538 0.0143478 0.0140511
25 1 2.99262 9.58946 5.17538 0.00483595 -0.00748652 -0.00531342
26 2 3.54945 10.4205 5.19802 0.013076 -0.0100473 0.00970515
27 2 4.43841 6.3158 3.20969 0.0071124 0.00351449 0.00141775
28 1 11.1901 5.82703 4.17001 0.00106107 -0.0033239 -0.00371269
29 2 11.6906 5.53813 4.88313 0.0208521 -0.021938 0.00781208
30 2 10.534 6.46223 4.66061 0.00215626 0.0144832 -0.00596142
31 1 4.53079 11.6879 5.5271 -0.0047543 -0.00123934 -0.00028025
32 2 3.9647 13.2774 5.82182 -0.00133133 0.0343642 -0.0132881
33 2 5.19795 11.6205 4.79332 0.000603657 0.0349383 0.0135673
34 1 4.72409 13.3208 9.62096 -0.0036913 -0.00900762 -0.00545448
35 2 4.2615 12.9281 10.4341 -0.00820343 -0.00814592 -0.00248031
36 2 5.50876 13.7499 9.98363 0.00579013 0.020491 -0.00439859
37 1 8.26759 10.9742 9.75902 -0.0042986 0.007301 -0.00344952
38 2 8.94583 11.1973 9.10901 0.00272362 0.0090736 0.00583934
39 2 8.87515 10.4881 10.4622 -0.00256557 0.0065874 -0.0191345
40 1 3.48914 4.31017 5.7084 0.000174701 -3.1953e-06 -0.00185277
41 2 4.47203 5.13815 4.23656 0.0140026 0.000365989 -0.0116707
42 2 12.4502 4.2346 6.11676 -0.0014339 -0.00959592 0.0117869
43 1 5.05963 5.7737 3.79376 -0.00015933 0.00190178 -0.0030159
44 2 2.9901 8.25797 3.62503 -0.00969462 0.00209043 -0.00098457
45 2 8.13056 12.7893 5.04895 -0.0321743 -0.0266271 0.00590512
46 1 9.65781 11.7146 7.46849 0.00338487 -0.00621796 -0.00301749
47 2 9.02212 12.0617 6.82502 -0.00874135 -0.0107975 0.021929
48 2 10.109 10.9391 7.05699 -0.0228202 0.0100745 0.0102094
49 1 9.3781 7.01377 9.32228 0.000641345 0.00513716 0.0111442
50 2 8.66909 6.56568 8.85499 -0.0165395 0.000849634 0.00986442
51 2 8.98435 7.28761 10.1361 -0.00924037 -0.0209838 0.0315073
52 1 10.9731 11.6097 3.61463 0.00670839 0.00249647 -0.00201268
53 2 10.1744 11.7874 4.08412 0.00272369 0.0125863 0.00987061
54 2 11.4883 11.0109 4.21481 0.0109708 -0.016836 -0.0241615
55 1 6.00274 11.1448 3.37151 -0.00710099 0.00270766 0.00288092
56 2 5.8816 10.1849 3.23224 0.0176237 -0.0155855 -0.0351226
57 2 5.18341 11.5723 2.99673 0.00896309 -0.029048 -0.0146084
58 1 6.63279 9.30266 8.60061 0.00758572 0.00361377 0.00517764
59 2 4.75779 11.9985 8.49097 0.00571529 -0.00265383 -0.0443326
60 2 7.46907 9.71031 9.0419 0.00288816 -0.0126532 -0.00344047
61 1 7.07173 5.61014 8.58698 0.00391147 0.000637732 0.00171561
62 2 7.05808 5.35439 9.5589 -0.0127626 -0.00125208 0.0111174
63 2 6.20007 5.93228 8.36316 -0.0365763 0.0123203 0.00890967
64 1 4.88453 11.1295 8.04288 -0.000620951 0.00279842 0.00269358
65 2 5.02528 11.402 6.43469 -0.0268121 -0.00138904 0.00166899
66 2 4.21371 5.32688 6.91743 0.00391609 -0.0133098 0.00932614
67 1 10.8013 9.36761 6.98785 0.00171112 -0.00539681 0.00480348
68 2 11.5996 9.3183 6.37286 0.00579818 -0.0179372 -0.0003109
69 2 11.096 9.40087 7.91388 0.000932688 0.0195143 -0.0126367
70 1 11.1368 4.17131 7.40121 -0.0037058 0.00225938 -0.00101949
71 2 10.5364 13.2499 7.46697 -0.00694501 0.0110334 -0.0194435
72 2 11.3099 4.50612 8.33828 -0.0129631 0.00728182 0.0116317
73 1 9.03064 6.56415 6.42555 0.00538709 0.00312143 0.00116187
74 2 8.7596 5.92371 7.15496 0.00413696 -0.0058007 0.000257573
75 2 9.67251 7.1953 6.80108 -0.000554063 0.0158544 0.00669805
76 1 11.3962 5.24461 9.9125 -0.00370296 0.0108439 0.00342788
77 2 10.8201 6.00995 9.59764 -0.00297117 0.0166454 -0.00524088
78 2 3.45945 6.80641 9.64966 0.00969496 0.00360731 0.0157021
79 1 12.1397 9.66823 9.46929 -0.0010048 0.000411174 0.00280472
80 2 12.7134 8.80909 9.67364 0.00030858 -0.00187111 -0.014547
81 2 5.60406 10.5409 8.4363 -0.0016556 -0.0348202 0.0192837
82 1 6.69508 5.03673 11.2817 -0.0086708 -0.00217202 -0.00553512
83 2 7.5687 4.86068 11.6066 -0.0112979 0.00926312 -0.00158871
84 2 6.12919 5.02986 2.23922 -0.00108989 0.0241438 -0.0152722
85 1 9.5256 4.29154 11.9074 -0.00456552 0.00166271 0.000190881
86 2 9.96106 4.62528 2.82556 -0.0257361 -0.00403079 0.00282749
87 2 10.9274 4.70719 10.5455 0.0077409 0.00495263 0.0172928
88 1 7.33075 13.1957 6.74498 0.00017423 -0.00447685 -0.000601559
89 2 7.00581 12.5943 7.38708 0.0325947 -0.00930417 -0.0168122
90 2 7.24844 4.21465 7.22621 -0.0325671 -0.00395847 0.0159806
91 1 4.99438 7.67724 5.68367 0.00298232 -0.000720108 0.00272359
92 2 3.6804 8.93685 5.31843 -0.0165441 -0.010495 -0.00929073
93 2 4.55807 7.25133 6.40027 -0.000748044 0.00126208 -0.0180416
94 1 4.52866 5.7513 7.76893 0.00533485 0.000367976 0.00106981
95 2 4.27118 5.09787 8.44087 -0.00136502 -0.0153892 0.00236371
96 2 5.12817 6.96459 4.86243 0.00685871 0.0320186 0.0403584
ITEM: TIMESTEP
3
ITEM: NUMBER OF ATOMS
96
ITEM: BOX BOUNDS pp pp pp
2.9236100000000000e+00 1.2773600000000000e+01
4.0306300000000004e+00 1.3880599999999999e+01
2.1372399999999998e+00 1.1987200000000000e+01
ITEM: ATOMS id type x y z vx vy vz
1 1 8.45645 12.2747 4.31332 -0.0111899 2.13001e-05 -0.00471219
2 2 7.66544 11.7879 3.9413 -0.00933325 -0.0240384 0.0264845
3 2 9.40709 13.1986 2.30661 0.000523358 -0.00338044 -0.0219656
4 1 3.52799 11.8289 11.7686 0.00154671 0.000405716 -0.00627642
5 2 3.31847 11.087 11.1884 0.0142565 -0.000550037 -0.0130807
6 2 12.5744 11.8862 2.52726 -0.0142304 -0.0284529 0.0255785
7 1 3.04427 7.48289 3.06166 0.00520958 0.00468696 0.000266838
8 2 12.1263 6.98142 3.2461 0.0176694 -0.0279871 0.0220795
9 2 7.89648 7.78637 6.14728 0.0200237 0.0356808 0.00558189
10 1 7.37759 8.62673 6.1616 -0.00437057 -0.00742867 0.00608326
11 2 6.52117 8.2909 5.67135 0.0111163 0.0212077 -0.000567974
12 2 6.8681 9.05048 7.64607 0.0065966 -0.033774 0.00837876
13 1 5.89594 8.40674 2.47193 -0.00198578 -0.00043626 0.000265505
14 2 5.40507 8.32342 11.5131 -0.00954592 0.0388878 0.0149031
15 2 5.40675 7.78782 3.0413 0.00113293 0.0190796 -0.0117508
16 1 8.9766 7.52962 2.52714 0.00415087 -0.00283359 0.0016372
17 2 9.18488 6.5884 2.59299 0.00647048 0.00624531 -0.00320459
18 2 7.9855 7.52508 2.55814 0.0213369 0.0118302 0.00136715
19 1 3.6711 7.4855 10.2828 0.00710015 -0.000327434 -0.00183438
20 2 3.22976 7.34449 11.1256 0.00256455 0.00787752 0.0144703
21 2 11.4878 9.69295 10.2013 -0.0194629 -0.0523833 -0.0170608
22 1 10.1745 9.93986 11.4737 0.00256941 0.00336278 -0.00514602
23 2 10.4879 10.5534 2.39276 0.0113493 -0.0163136 -0.00177036
24 2 9.69835 9.23952 11.9584 -0.0118726 0.0110295 0.0126687
25 1 2.995 9.5857 5.17268 0.00467843 -0.00753533 -0.00547812
26 2 3.55544 10.4168 5.203 0.0109629 -0.0049279 0.0101929
27 2 4.44205 6.31691 3.21088 0.00736807 0.0010322 0.00335272
28 1 11.1904 5.8255 4.16819 0.000267342 -0.00282074 -0.00354219
29 2 11.7022 5.52637 4.88805 0.0245507 -0.0245717 0.0108766
30 2 10.5365 6.46764 4.65635 0.00805685 0.00699046 -0.0109734
31 1 4.52846 11.6873 5.52706 -0.00458201 -0.00117022 0.000111772
32 2 3.96349 13.2948 5.81509 -0.00298252 0.0343066 -0.0134435
33 2 5.19873 11.6378 4.80038 0.00264835 0.0342252 0.0145038
34 1 4.72219 13.3163 9.61831 -0.00386683 -0.00903975 -0.00514757
35 2 4.25805 12.9244 10.4318 -0.00545989 -0.0063767 -0.00704016
36 2 5.51173 13.7602 9.98159 0.00529808 0.0201127 -0.00397822
37 1 8.26556 10.9777 9.75742 -0.00382687 0.00694161 -0.00298653
38 2 8.94695 11.2025 9.11059 0.00166237 0.0119455 0.000414799
39 2 8.87241 10.4921 10.4522 -0.00833045 0.00930192 -0.0204519
40 1 3.48925 4.3102 5.70746 0.000207448 0.000171468 -0.00191235
41 2 4.4788 5.1382 4.23118 0.0129194 -0.000314417 -0.00980793
42 2 12.4494 4.22934 6.12313 -0.0014994 -0.0114084 0.0136219
43 1 5.05955 5.7747 3.79221 -0.000150633 0.00207294 -0.00320762
44 2 2.98539 8.2598 3.62505 -0.00913824 0.00526475 0.00104435
45 2 8.11407 12.7761 5.05241 -0.0334907 -0.0258196 0.00797511
46 1 9.6595 11.7115 7.46701 0.00335103 -0.00593237 -0.00282918
47 2 9.01731 12.0562 6.83581 -0.010815 -0.010749 0.0208875
48 2 10.0979 10.9434 7.06169 -0.021329 0.00646173 0.00811443
49 1 9.37849 7.01635 9.32782 0.000855393 0.00517337 0.0110627
50 2 8.66025 6.56582 8.8596 -0.0182941 -2.64559e-05 0.00881767
51 2 8.97964 7.2774 10.1529 -0.00919284 -0.020038 0.0351099
52 1 10.9766 11.6108 3.61358 0.00726277 0.0022512 -0.00214501
53 2 10.1742 11.7941 4.08988 -0.0032138 0.0140383 0.0128938
54 2 11.4936 11.0027 4.20245 0.0100877 -0.0158759 -0.0251621
55 1 5.99915 11.1462 3.37293 -0.00722828 0.00279583 0.00282264
56 2 5.8904 10.1769 3.21435 0.0177718 -0.0156876 -0.036215
57 2 5.1884 11.5572 2.98903 0.0104379 -0.0311987 -0.0163542
58 1 6.6366 9.30443 8.60327 0.00766083 0.00345404 0.00545291
59 2 4.76126 11.9972 8.46959 0.00813998 -0.00227232 -0.0406767
60 2 7.47009 9.70428 9.03989 0.0015842 -0.0112619 -0.0044393
61 1 7.07381 5.61041 8.58789 0.00428515 0.000449777 0.00190536
62 2 7.05137 5.35406 9.56371 -0.0139123 1.94903e-06 0.00767442
63 2 6.18058 5.93882 8.36735 -0.0398578 0.0132533 0.00806899
64 1 4.88416 11.131 8.04412 -0.000863744 0.00279373 0.00224727
65 2 5.01095 11.4016 6.43446 -0.0301485 -0.000138734 -0.00238234
66 2 4.21584 5.32023 6.92193 0.00469705 -0.0131236 0.00854481
67 1 10.8021 9.36488 6.99021 0.00165246 -0.00555538 0.0045811
68 2 11.6024 9.30974 6.37343 0.00496318 -0.0162454 0.00268108
69 2 11.0974 9.41069 7.90779 0.00486581 0.0197574 -0.011192
70 1 11.135 4.17248 7.40072 -0.0035841 0.00243032 -0.000938918
71 2 10.533 13.2552 7.4574 -0.00662946 0.00987219 -0.018736
72 2 11.3033 4.50949 8.34378 -0.0136022 0.00601923 0.010038
73 1 9.03334 6.56566 6.42614 0.00542819 0.00291261 0.00121002
74 2 8.76233 5.92256 7.15416 0.00679386 0.00127459 -0.00351153
75 2 9.67165 7.20248 6.80492 -0.0030102 0.0126601 0.00857342
76 1 11.3945 5.25007 9.91413 -0.00346163 0.0109969 0.00306777
77 2 10.8183 6.01749 9.59589 -0.00428298 0.0133323 -0.00158945
78 2 3.4638 6.8074 9.65763 0.00761216 -4.00549e-05 0.015849
79 1 12.1392 9.66833 9.47074 -0.000886907 -2.92976e-05 0.00297707
80 2 12.7128 8.80959 9.66602 -0.00266396 0.00380032 -0.0159543
81 2 5.60366 10.5238 8.44655 -0.000481633 -0.0331968 0.021399
82 1 6.69068 5.03563 11.2789 -0.00894082 -0.00221148 -0.00550246
83 2 7.56384 4.86503 11.6061 -0.00802017 0.00808741 -0.000439953
84 2 6.1292 5.04214 2.23101 0.000729531 0.0249858 -0.0170116
85 1 9.52329 4.2923 11.9075 -0.00467903 0.00138862 0.00011173
86 2 9.94865 4.6236 2.82744 -0.0237472 -0.00264711 0.00500383
87 2 10.9302 4.70984 10.5546 0.00347756 0.00596871 0.0187937
88 1 7.33085 13.1936 6.74469 0.000240031 -0.00404915 -0.000572178
89 2 7.02176 12.589 7.37913 0.0309836 -0.0126593 -0.0145065
90 2 7.2323 4.21181 7.23365 -0.0318688 -0.00756105 0.0136056
91 1 4.99589 7.67688 5.68485 0.00304775 -0.000675802 0.00201769
92 2 3.67243 8.92983 5.31413 -0.0150562 -0.0177353 -0.00786206
93 2 4.5578 7.25087 6.392 -0.000724328 -0.00335942 -0.0143359
94 1 4.53127 5.75149 7.76946 0.0050973 0.00032185 0.00108099
95 2 4.27076 5.09011 8.44235 -0.000165743 -0.0152319 0.00338332
96 2 5.13094 6.98122 4.88459 0.00444955 0.033777 0.0471204
ITEM: TIMESTEP
4
ITEM: NUMBER OF ATOMS
96
ITEM: BOX BOUNDS pp pp pp
2.9236100000000000e+00 1.2773600000000000e+01
4.0306300000000004e+00 1.3880599999999999e+01
2.1372399999999998e+00 1.1987200000000000e+01
ITEM: ATOMS id type x y z vx vy vz
1 1 8.4508 12.2747 4.31091 -0.0114329 -0.000141205 -0.00489326
2 2 7.6617 11.7764 3.95494 -0.00562785 -0.022032 0.0276874
3 2 9.4075 13.1979 2.29558 0.00110702 0.00058991 -0.0220567
4 1 3.5287 11.8291 11.7656 0.0012578 0.000389643 -0.00601923
5 2 3.32542 11.087 11.182 0.0135262 0.000517288 -0.0125081
6 2 12.5687 11.8718 2.53879 -0.00800499 -0.0289194 0.0198809
7 1 3.04702 7.48531 3.06173 0.00575251 0.00500681 4.92912e-05
8 2 12.1329 6.96562 3.25766 0.00925535 -0.0349214 0.0240782
9 2 7.90787 7.8038 6.15092 0.0254657 0.0332569 0.00869491
10 1 7.37533 8.62299 6.16452 -0.00465758 -0.00744718 0.00561428
11 2 6.52696 8.30284 5.67199 0.0119269 0.0259735 0.00280776
12 2 6.87163 9.03353 7.65012 0.00744589 -0.0338917 0.00797384
13 1 5.89495 8.40651 2.47211 -0.001944 -0.000453533 0.000434805
14 2 5.40012 8.34283 11.5203 -0.0105615 0.0386557 0.0130679
15 2 5.40778 7.79802 3.03506 0.00234198 0.020861 -0.0126027
16 1 8.97858 7.52817 2.52796 0.00383163 -0.00293308 0.00162323
17 2 9.18803 6.59202 2.59131 0.00612449 0.00777482 -0.00348469
18 2 7.99748 7.53119 2.55877 0.0258032 0.012458 0.00120491
19 1 3.67473 7.48546 10.2818 0.00742058 0.000165541 -0.00200085
20 2 3.23042 7.34773 11.1333 0.000377216 0.0051845 0.0155989
21 2 11.478 9.66696 10.1925 -0.019744 -0.0513536 -0.018001
22 1 10.1758 9.94158 11.4712 0.00255672 0.00346493 -0.0048279
23 2 10.4936 10.5454 2.39105 0.011193 -0.0155778 -0.00510704
24 2 9.69224 9.24424 11.9643 -0.0123813 0.00808334 0.0105065
25 1 2.9973 9.58192 5.1699 0.00447817 -0.00754981 -0.00564267
26 2 3.56041 10.4155 5.20821 0.00894746 -0.000372516 0.0106528
27 2 4.44578 6.31683 3.21304 0.00752899 -0.00108968 0.00515212
28 1 11.1904 5.82421 4.16647 -0.000414585 -0.00237729 -0.00327008
29 2 11.7152 5.51356 4.894 0.0264406 -0.0260591 0.0119317
30 2 10.5421 6.46922 4.64963 0.0140669 -0.000649847 -0.015611
31 1 4.52621 11.6867 5.52721 -0.00446888 -0.00108159 0.000465111
32 2 3.96172 13.3117 5.80837 -0.00356551 0.0323325 -0.0132939
33 2 5.2006 11.6547 4.80782 0.00500637 0.0332698 0.0150326
34 1 4.72022 13.3117 9.61582 -0.00396013 -0.00900849 -0.00481009
35 2 4.25604 12.9217 10.4271 -0.00254872 -0.00455851 -0.0115118
36 2 5.51405 13.7701 9.97965 0.00332385 0.0188314 -0.00398562
37 1 8.26376 10.9811 9.75604 -0.00336023 0.00661629 -0.00256764
38 2 8.94749 11.2093 9.10943 0.000379081 0.014884 -0.00501185
39 2 8.86682 10.4974 10.4418 -0.0138295 0.0115705 -0.0209959
40 1 3.48935 4.31034 5.70649 0.000138506 0.000468484 -0.00197345
41 2 4.48494 5.13784 4.22675 0.0115514 -0.00126554 -0.00787294
42 2 12.4487 4.22319 6.13038 -0.00127258 -0.0130972 0.0152901
43 1 5.05948 5.77577 3.79055 -0.00010154 0.0022244 -0.00341681
44 2 2.98096 8.26324 3.62607 -0.0086037 0.00830364 0.00292159
45 2 8.09707 12.7634 5.05693 -0.0341346 -0.0247858 0.0100346
46 1 9.66116 11.7087 7.46566 0.00329324 -0.00556613 -0.00255507
47 2 9.01131 12.0509 6.84591 -0.0133839 -0.0103886 0.019263
48 2 10.0877 10.9456 7.0651 -0.0190469 0.00146195 0.0051564
49 1 9.37895 7.01894 9.33334 0.000939635 0.00518644 0.0110255
50 2 8.6508 6.56565 8.86381 -0.0189375 -0.000352493 0.00829478
51 2 8.97516 7.26757 10.1713 -0.00827239 -0.0194337 0.0374374
52 1 10.9804 11.6119 3.61248 0.00773345 0.00202757 -0.00224284
53 2 10.1712 11.8014 4.09702 -0.00767366 0.015 0.0152439
54 2 11.4984 10.9951 4.18965 0.0088473 -0.0147106 -0.025867
55 1 5.99551 11.1476 3.37433 -0.00730896 0.00273503 0.00276401
56 2 5.89937 10.1692 3.19603 0.0182854 -0.0144812 -0.036766
57 2 5.19385 11.5411 2.98038 0.0107702 -0.0323085 -0.0184299
58 1 6.64045 9.30611 8.60606 0.00768879 0.00323855 0.0057062
59 2 4.76593 11.9963 8.45029 0.0105332 -0.000708887 -0.0360927
60 2 7.47065 9.69905 9.03746 0.0010583 -0.00947692 -0.00510947
61 1 7.07602 5.61059 8.58889 0.0044409 0.000330187 0.00210801
62 2 7.04417 5.35439 9.56657 -0.0146924 0.00135992 0.0034748
63 2 6.16022 5.94554 8.37123 -0.04009 0.013032 0.00756998
64 1 4.88367 11.1323 8.04513 -0.0010497 0.00263741 0.00179114
65 2 4.99513 11.4018 6.43231 -0.0326955 0.000800393 -0.00584762
66 2 4.2184 5.31376 6.92598 0.0056296 -0.0126304 0.0075225
67 1 10.8029 9.36206 6.99243 0.00161255 -0.00573782 0.00428264
68 2 11.6046 9.30205 6.37554 0.00377598 -0.0144687 0.00574703
69 2 11.1008 9.42062 7.90268 0.00895666 0.0200074 -0.00880325
70 1 11.1332 4.17374 7.40027 -0.00343945 0.00263454 -0.000825354
71 2 10.5297 13.2598 7.44824 -0.00637454 0.00867222 -0.0178228
72 2 11.2963 4.51214 8.34832 -0.0144309 0.0044205 0.00787932
73 1 9.03607 6.56706 6.42676 0.00549662 0.00271362 0.00126502
74 2 8.7664 5.92498 7.15145 0.0094026 0.00828926 -0.00717409
75 2 9.6695 7.20796 6.80966 -0.00559249 0.00920668 0.0103147
76 1 11.3928 5.25561 9.91557 -0.00324328 0.0111235 0.00272254
77 2 10.8158 6.02329 9.59605 -0.00566429 0.00980427 0.00228288
78 2 3.46706 6.80637 9.66551 0.00532798 -0.00428767 0.0154731
79 1 12.1388 9.66821 9.47227 -0.000763459 -0.000471342 0.00313559
80 2 12.7107 8.81289 9.65768 -0.00515868 0.00912272 -0.0174055
81 2 5.60358 10.5077 8.4577 -0.00040067 -0.0302916 0.022846