ITEM: TIMESTEP
0
ITEM: NUMBER OF ATOMS
96
ITEM: BOX BOUNDS pp pp pp
2.9236100000000000e+00 1.2773600000000000e+01
4.0306300000000004e+00 1.3880599999999999e+01
2.1372399999999998e+00 1.1987200000000000e+01
ITEM: ATOMS id type x y z vx vy vz
1 1 8.47277 12.2743 4.31989 0.0106327 -0.000447569 0.00404992
2 2 7.68719 11.8292 3.90626 0.0187892 0.0310937 -0.0194955
3 2 9.40752 13.2126 2.3388 0.000954933 0.0147085 0.0207995
4 1 3.52538 11.8283 11.7784 -0.00166392 -0.000396693 0.0065626
5 2 3.29557 11.0894 11.2086 -0.0161891 0.00208571 0.0132736
6 2 12.604 11.9279 2.48095 0.0209068 0.0274938 -0.0327145
7 1 3.03778 7.47659 3.06076 -0.00350335 -0.00374712 -0.000884993
8 2 12.0795 7.00753 3.21754 -0.0434306 0.00805724 -0.0161805
9 2 7.87842 7.7329 6.14728 -0.00475388 -0.0321198 0.00604774
10 1 7.38342 8.63724 6.15131 0.0034047 0.00625671 -0.00765337
11 2 6.50674 8.27284 5.68129 -0.00801816 -0.00169474 0.0131131
12 2 6.86052 9.10018 7.63184 -0.003361 0.032144 -0.0108489
13 1 5.89869 8.40707 2.4719 0.0015209 -0.000134441 0.000177273
14 2 5.41923 8.26535 11.4899 0.0105649 -0.0379604 -0.014137
15 2 5.41093 7.76739 3.05387 0.00788949 -0.00655821 0.00382194
16 1 8.96942 7.53345 2.52468 -0.00548974 0.00219457 -0.00163706
17 2 9.17456 6.58475 2.59691 -0.00709291 0.00214137 0.00191476
18 2 7.96719 7.50967 2.55551 -0.00207413 -0.00822193 -0.00221101
19 1 3.66124 7.487 10.2849 -0.00604234 0.00155891 0.000804575
20 2 3.21941 7.32604 11.1092 -0.0117053 -0.0168258 -0.00644297
21 2 11.5176 9.77245 10.2236 0.020937 0.0528088 0.0120798
22 1 10.1707 9.93522 11.4819 -0.00245582 -0.00276133 0.00572046
23 2 10.4699 10.5781 2.38855 -0.0130777 0.0157092 -0.00671968
24 2 9.71417 9.21538 11.9369 0.00901801 -0.0212326 -0.0146502
25 1 2.98769 9.59685 5.18053 -0.00494091 0.00723696 0.00499792
26 2 3.53412 10.4357 5.18883 -0.0177331 0.019966 -0.00862402
27 2 4.43162 6.30972 3.21018 -0.00648772 -0.00856876 0.00223604
28 1 11.1882 5.83088 4.17378 -0.00280124 0.00437074 0.0037034
29 2 11.6751 5.55644 4.8802 -0.00889485 0.0139402 0.00333498
30 2 10.5372 6.44086 4.66155 0.00749314 -0.0272089 -0.00368778
31 1 4.53577 11.6892 5.52779 0.00524852 0.0013395 0.00108701
32 2 3.96342 13.2449 5.83462 -0.00467406 -0.0289575 0.0119889
33 2 5.19907 11.5851 4.78104 0.00252297 -0.0355945 -0.0105802
34 1 4.72753 13.3297 9.62667 0.00312826 0.00879237 0.00588196
35 2 4.27206 12.9378 10.4323 0.0123416 0.010911 -0.00556386
36 2 5.50408 13.73 9.9889 -0.00198767 -0.018541 0.00657377
37 1 8.27235 10.9665 9.76295 0.00519759 -0.00803675 0.00439209
38 2 8.94219 11.1909 9.09804 -0.00449232 -0.0040788 -0.01554
39 2 8.87201 10.4845 10.4794 -0.00846733 -0.00044052 0.0146881
40 1 3.48909 4.31023 5.7102 0.000151602 1.31212e-06 0.00175553
41 2 4.45733 5.13743 4.24997 -0.0149 -0.000716557 0.0149552
42 2 12.4513 4.24231 6.10694 0.00061145 0.00579272 -0.00776251
43 1 5.05976 5.77197 3.79661 5.1509e-05 -0.00158047 0.00270921
44 2 3.0003 8.25879 3.62796 0.0105908 0.00309504 0.00457946
45 2 8.16087 12.8164 5.04496 0.0280308 0.0272911 -0.00237701
46 1 9.65442 11.721 7.47159 -0.00336732 0.0065155 0.00307764
47 2 9.02942 12.0721 6.8028 0.00653452 0.00966902 -0.0216796
48 2 10.1324 10.927 7.04569 0.0228859 -0.0125837 -0.011317
49 1 9.37778 7.00869 9.31102 9.41301e-05 -0.00500766 -0.0113883
50 2 8.68287 6.56349 8.84368 0.0102149 -0.00383662 -0.0129764
51 2 8.99288 7.30982 10.1092 0.00723519 0.0235947 -0.0218715
52 1 10.967 11.6069 3.61649 -0.00549232 -0.00300544 0.00171854
53 2 10.1648 11.7766 4.07763 -0.0169104 -0.0088146 -0.00311804
54 2 11.4768 11.0285 4.23772 -0.0116555 0.018041 0.0214537
55 1 6.00967 11.1423 3.36857 0.00672163 -0.00212636 -0.00299367
56 2 5.86378 10.1991 3.26582 -0.0183019 0.0117285 0.031676
57 2 5.17698 11.5983 3.00989 -0.003007 0.0220681 0.0118033
58 1 6.62532 9.29894 8.59572 -0.00729943 -0.00377784 -0.00459915
59 2 4.75451 12.0003 8.53786 -0.000889541 -0.000408414 0.0482278
60 2 7.46415 9.72395 9.04405 -0.00757481 0.0142165 0.000636637
61 1 7.0684 5.60926 8.58543 -0.00257381 -0.00117431 -0.00143034
62 2 7.06936 5.35672 9.54534 0.00950079 0.00318472 -0.0148485
63 2 6.23046 5.92199 8.35301 0.0217256 -0.00735249 -0.011749
64 1 4.88486 11.1269 8.03977 -1.35154e-05 -0.00234031 -0.00347427
65 2 5.04813 11.4048 6.42872 0.0184544 0.00439728 -0.0101928
66 2 4.21041 5.34003 6.9076 -0.00283626 0.0126061 -0.0100356
67 1 10.7995 9.37288 6.98292 -0.00189691 0.00516455 -0.00494182
68 2 11.5935 9.33783 6.37589 -0.00590264 0.0210193 0.00529786
69 2 11.0987 9.38162 7.92687 0.00598412 -0.0189164 0.0122175
70 1 11.1406 4.16918 7.40227 0.00385999 -0.00204749 0.00105556
71 2 10.5437 13.2378 7.48688 0.00781373 -0.0131546 0.0200914
72 2 11.3225 4.49799 8.32575 0.0124788 -0.00849993 -0.0126518
73 1 9.02527 6.56082 6.4244 -0.00538379 -0.00351833 -0.00119354
74 2 8.75797 5.93623 7.15122 0.000518928 0.0184999 -0.00655731
75 2 9.67094 7.17672 6.79644 -0.00318774 -0.0206716 -0.00239074
76 1 11.4002 5.23393 9.90872 0.0042228 -0.0105273 -0.00411608
77 2 10.8218 5.99044 9.60615 0.000385775 -0.0217285 0.0112675
78 2 3.44796 6.79999 9.6348 -0.0129152 -0.00824654 -0.0132321
79 1 12.1408 9.66741 9.46667 0.00116082 -0.00118645 -0.00244337
80 2 12.7099 8.81662 9.68688 -0.00660703 0.0128292 0.012099
81 2 5.60795 10.5761 8.41969 0.00706135 0.0342949 -0.0135233
82 1 6.70347 5.03885 11.2873 0.00811591 0.00206391 0.00578495
83 2 7.58287 4.85033 11.6092 0.0163804 -0.0112959 0.00344444
84 2 6.13283 5.0066 2.25178 0.00673952 -0.022302 0.00911398
85 1 9.53007 4.28962 11.9072 0.00441502 -0.00212386 -0.000175408
86 2 9.9884 4.63054 2.82417 0.0284367 0.00624051 -0.00085186
87 2 10.9153 4.70269 10.5302 -0.0162778 -0.00453285 -0.012973
88 1 7.33063 13.2005 6.74564 -8.9371e-05 0.0049823 0.00075559
89 2 6.97213 12.6015 7.4051 -0.0341254 0.00640869 0.0179989
90 2 7.28149 4.21544 7.20828 0.0333174 -0.00170241 -0.0192997
91 1 4.99145 7.67789 5.6802 -0.00290941 0.000472524 -0.00421477
92 2 3.69774 8.94066 5.32907 0.0172331 -0.00178759 0.0118442
93 2 4.5597 7.24603 6.42054 0.00340864 -0.0085853 0.0209194
94 1 4.5231 5.75096 7.76782 -0.00575751 -0.000252543 -0.00120231
95 2 4.2734 5.11263 8.43985 0.00272291 0.0133804 0.000570917
96 2 5.11854 6.93565 4.83089 -0.0125588 -0.0248132 -0.0211965
ITEM: TIMESTEP
1
ITEM: NUMBER OF ATOMS
96
ITEM: BOX BOUNDS pp pp pp
2.9236100000000000e+00 1.2773600000000000e+01
4.0306300000000004e+00 1.3880599999999999e+01
2.1372399999999998e+00 1.1987200000000000e+01
ITEM: ATOMS id type x y z vx vy vz
1 1 8.47806 12.2741 4.32186 0.0105327 -0.000519597 0.00386094
2 2 7.69715 11.8453 3.89721 0.020617 0.0331873 -0.0167234
3 2 9.40809 13.2207 2.34909 0.00123494 0.0173529 0.0203904
4 1 3.5246 11.8281 11.7817 -0.00139371 -0.000401051 0.00646168
5 2 3.28733 11.0905 11.2151 -0.0167159 0.00196502 0.0127511
6 2 12.6141 11.9417 2.46474 0.0180997 0.0277834 -0.0311331
7 1 3.03615 7.47478 3.06028 -0.00309357 -0.00349986 -0.00101744
8 2 12.0561 7.01025 3.20989 -0.0491566 0.00359486 -0.0144763
9 2 7.87714 7.71785 6.15134 -0.000755125 -0.0271939 0.010136
10 1 7.38505 8.64021 6.14735 0.00311558 0.00555609 -0.008155
11 2 6.50301 8.27381 5.68895 -0.00689832 0.00559048 0.0174282
12 2 6.85913 9.11605 7.62617 -0.00220516 0.0312501 -0.0117795
13 1 5.89938 8.40693 2.47201 0.00123339 -0.000436089 0.000243547
14 2 5.42484 8.24657 11.4833 0.012112 -0.0369877 -0.0118894
15 2 5.41582 7.76542 3.05493 0.0116632 -0.00130604 0.000445501
16 1 8.96655 7.53448 2.52386 -0.00595938 0.00192839 -0.00163326
17 2 9.17101 6.58663 2.59774 -0.00702547 0.00528724 0.00141651
18 2 7.96787 7.50596 2.55432 0.00453607 -0.0065365 -0.00253447
19 1 3.6583 7.48786 10.2852 -0.0057177 0.00182294 0.000347663
20 2 3.21274 7.31688 11.1068 -0.0148488 -0.0196999 -0.00325509
21 2 11.5283 9.79873 10.2291 0.0219363 0.0521025 0.00986245
22 1 10.1695 9.9339 11.4848 -0.00239208 -0.0025139 0.00578148
23 2 10.4631 10.5857 2.38464 -0.0140225 0.0145494 -0.00866988
24 2 9.71843 9.20394 11.9297 0.00809976 -0.0242846 -0.01407
25 1 2.98523 9.60042 5.18299 -0.00486298 0.00702635 0.00485223
26 2 3.52463 10.4468 5.18467 -0.0202858 0.0238568 -0.00798704
27 2 4.42845 6.30483 3.2117 -0.00623498 -0.0108486 0.00371772
28 1 11.1866 5.83319 4.1756 -0.00362904 0.00483363 0.00353547
29 2 11.6724 5.56225 4.88357 -0.00148622 0.00915821 0.0103158
30 2 10.5419 6.42595 4.65862 0.010315 -0.0315746 -0.00753606
31 1 4.53847 11.6899 5.52843 0.00554929 0.00137692 0.00145357
32 2 3.96015 13.2315 5.84037 -0.00863021 -0.0238702 0.0108778
33 2 5.20065 11.5673 4.77624 0.00364603 -0.0355327 -0.00854182
34 1 4.72901 13.3341 9.62964 0.00277703 0.0086384 0.0059704
35 2 4.27859 12.9435 10.4287 0.0133971 0.011643 -0.00845255
36 2 5.50395 13.7212 9.99256 0.00207507 -0.0164284 0.00821956
37 1 8.27505 10.9624 9.76526 0.00559704 -0.00837061 0.00481423
38 2 8.93973 11.1894 9.08921 -0.0053512 -0.00217795 -0.0193067
39 2 8.86651 10.4851 10.4861 -0.0131409 0.00265364 0.011881
40 1 3.48922 4.3102 5.71107 0.000410416 -0.000148981 0.00172333
41 2 4.4499 5.13712 4.25781 -0.0145284 -0.000331191 0.0162444
42 2 12.4515 4.24473 6.10358 -5.49749e-05 0.00390958 -0.00564227
43 1 5.05976 5.77121 3.79793 -6.88174e-05 -0.00146589 0.00260008
44 2 3.00567 8.26081 3.63061 0.0107863 0.00446375 0.00574871
45 2 8.17427 12.83 5.04413 0.0254756 0.0270362 -0.00116856
46 1 9.65275 11.7243 7.47311 -0.00331124 0.00652817 0.0029431
47 2 9.03258 12.0767 6.7922 0.00642729 0.00846645 -0.0202831
48 2 10.1436 10.9208 7.04016 0.021407 -0.0115589 -0.0102724
49 1 9.37794 7.00621 9.30529 0.0005529 -0.00492118 -0.0115181
50 2 8.687 6.56113 8.83676 0.00611158 -0.00560124 -0.0146172
51 2 8.99612 7.32197 10.0996 0.00558726 0.0249607 -0.0167892
52 1 10.9644 11.6053 3.61731 -0.00491058 -0.00324526 0.00159689
53 2 10.1545 11.7727 4.07689 -0.0238821 -0.00684037 -8.81271e-05
54 2 11.471 11.0376 4.24806 -0.0115146 0.0182742 0.0198417
55 1 6.01297 11.1413 3.36706 0.0064829 -0.00167856 -0.00304369
56 2 5.85447 10.2042 3.28114 -0.019008 0.00838428 0.0295091
57 2 5.17643 11.6083 3.01544 0.00109686 0.0175695 0.0104354
58 1 6.62172 9.29704 8.59349 -0.00709393 -0.00379652 -0.00431865
59 2 4.75465 11.9994 8.56215 0.00139186 -0.00374696 0.0482667
60 2 7.45963 9.73115 9.04397 -0.0107216 0.0144116 -0.00101871
61 1 7.06732 5.6086 8.58474 -0.00168741 -0.00148739 -0.00136061
62 2 7.07363 5.3585 9.53774 0.00745248 0.00380668 -0.0149552
63 2 6.23889 5.91915 8.34669 0.0113176 -0.0037838 -0.0135898
64 1 4.88476 11.1258 8.03795 -0.000382403 -0.00189188 -0.00376602
65 2 5.05622 11.4074 6.4226 0.013851 0.00592484 -0.0139952
66 2 4.20909 5.34615 6.90257 -0.00252826 0.0116779 -0.00991219
67 1 10.7985 9.37544 6.98046 -0.00202596 0.00509256 -0.00484058
68 2 11.5907 9.3487 6.37904 -0.00501748 0.0224073 0.00698308
69 2 11.1025 9.37225 7.93264 0.00878326 -0.0184846 0.010347
70 1 11.1425 4.16817 7.40279 0.0038854 -0.00201701 0.00100639
71 2 10.5477 13.231 7.49694 0.00839845 -0.0140507 0.0199785
72 2 11.3288 4.49371 8.3195 0.0127035 -0.00837178 -0.0119638
73 1 9.02257 6.55902 6.42378 -0.00541393 -0.0036824 -0.00131902
74 2 8.75871 5.94686 7.14734 0.0021337 0.0233729 -0.00837239
75 2 9.66902 7.16595 6.79583 -0.00415368 -0.0219803 5.91027e-05
76 1 11.4024 5.2287 9.90658 0.00447632 -0.0103991 -0.004405
77 2 10.8217 5.97912 9.6124 -0.000941434 -0.0231199 0.0133853
78 2 3.44119 6.79554 9.62869 -0.0139377 -0.00900711 -0.010791
79 1 12.1414 9.66673 9.46549 0.00117431 -0.00147472 -0.0022705
80 2 12.7058 8.82429 9.69267 -0.00938383 0.0174102 0.0111807
81 2 5.61238 10.5929 8.41374 0.0109651 0.0323466 -0.0102364
82 1 6.70746 5.03986 11.2902 0.00788134 0.00198693 0.00598365
83 2 7.59152 4.84447 11.6111 0.0177755 -0.0120459 0.00397216
84 2 6.13703 4.9957 2.2554 0.0101625 -0.0212631 0.00522623
85 1 9.53227 4.28851 11.9071 0.00439391 -0.00226876 -7.8734e-05
86 2 10.0028 4.63387 2.82376 0.0289572 0.00693258 -0.00127929
87 2 10.9061 4.70036 10.5243 -0.0200838 -0.00495473 -0.0105236
88 1 7.33059 13.203 6.74604 -8.21099e-05 0.00502663 0.000872657
89 2 6.95504 12.6047 7.41394 -0.0338738 0.0069869 0.0167505
90 2 7.29819 4.21406 7.19837 0.0333692 -0.00332627 -0.0199806
91 1 4.98999 7.67807 5.67791 -0.00294115 0.000218878 -0.00491414
92 2 3.70621 8.93854 5.33527 0.016096 -0.00587741 0.0128251
93 2 4.56196 7.24102 6.43097 0.00602836 -0.0110112 0.0200573
94 1 4.52017 5.75087 7.76719 -0.00593715 -9.71698e-05 -0.00133314
95 2 4.27485 5.11888 8.44056 0.00290722 0.011326 0.00231848
96 2 5.11152 6.92439 4.82304 -0.015443 -0.0199107 -0.00990293
ITEM: TIMESTEP
2
ITEM: NUMBER OF ATOMS
96
ITEM: BOX BOUNDS pp pp pp
2.9236100000000000e+00 1.2773600000000000e+01
4.0306300000000004e+00 1.3880599999999999e+01
2.1372399999999998e+00 1.1987200000000000e+01
ITEM: ATOMS id type x y z vx vy vz
1 1 8.4833 12.2738 4.32375 0.010485 -0.000536752 0.00372101
2 2 7.70781 11.8624 3.88954 0.0214663 0.0348912 -0.0140947
3 2 9.40875 13.23 2.35919 0.00135067 0.0190385 0.0201123
4 1 3.52399 11.8279 11.7849 -0.000973378 -0.000424294 0.00626639
5 2 3.27885 11.0914 11.2214 -0.0171474 0.00156559 0.0119588
6 2 12.6221 11.9557 2.44982 0.0127917 0.0285827 -0.0276687
7 1 3.03469 7.47309 3.05974 -0.00283694 -0.00330464 -0.00109646
8 2 12.0303 7.01112 3.20306 -0.0522598 0.000777512 -0.012894
9 2 7.87766 7.70571 6.15742 0.00244415 -0.0206783 0.0140288
10 1 7.38654 8.6428 6.14316 0.00286799 0.004759 -0.00860978
11 2 6.49984 8.27843 5.69872 -0.0057302 0.0127575 0.0214907
12 2 6.85831 9.13143 7.62006 -0.00109138 0.0302056 -0.0125889
13 1 5.89992 8.40663 2.47214 0.000923392 -0.000752062 0.000249466
14 2 5.43134 8.22836 11.478 0.0140563 -0.0356837 -0.00891754
15 2 5.42259 7.76608 3.05432 0.0152126 0.00366047 -0.00268656
16 1 8.96346 7.53538 2.52305 -0.00638697 0.00167029 -0.0016331
17 2 9.16753 6.59004 2.59833 -0.00676399 0.00811599 0.000931919
18 2 7.97173 7.50313 2.55298 0.0103423 -0.0046959 -0.00283898
19 1 3.65552 7.48882 10.2852 -0.00543695 0.00199273 -0.000119816
20 2 3.20456 7.30634 11.1059 -0.017614 -0.0222785 -0.000387206
21 2 11.5395 9.82455 10.2335 0.0229973 0.0510301 0.00751068
22 1 10.1683 9.93271 11.4877 -0.00232844 -0.00227339 0.00578544
23 2 10.4559 10.5926 2.37988 -0.0151083 0.0129456 -0.0100724
24 2 9.72227 9.1911 11.9228 0.00743556 -0.0267285 -0.0130847
25 1 2.98283 9.60388 5.18538 -0.00469513 0.00676191 0.00471638
26 2 3.51383 10.4596 5.18084 -0.0229418 0.0265875 -0.00724408
27 2 4.42539 6.29887 3.2139 -0.00595522 -0.0126929 0.00490833
28 1 11.1846 5.83571 4.17732 -0.00433806 0.00519948 0.00328545
29 2 11.6736 5.5656 4.89052 0.00615698 0.00430184 0.0172135
30 2 10.5475 6.40929 4.65401 0.0111517 -0.0340535 -0.0102181
31 1 4.54132 11.6906 5.52924 0.00586905 0.00140776 0.00176544
32 2 3.95479 13.221 5.8455 -0.0128933 -0.017591 0.00952285
33 2 5.20272 11.5496 4.7725 0.00451199 -0.0352155 -0.00637183
34 1 4.73031 13.3383 9.63264 0.0024156 0.0084775 0.00596707
35 2 4.28546 12.9494 10.4238 0.0136285 0.0118168 -0.01028
36 2 5.50616 13.7136 9.99712 0.00714856 -0.0138246 0.0100719
37 1 8.27795 10.9581 9.76776 0.00594614 -0.00865577 0.00516838
38 2 8.93684 11.1887 9.07873 -0.00627064 -0.000773769 -0.0220904
39 2 8.85887 10.4872 10.4913 -0.0169123 0.00552884 0.00894637
40 1 3.4895 4.31008 5.71192 0.000703903 -0.000372143 0.00170348
41 2 4.4428 5.1371 4.26621 -0.0135102 0.000425832 0.0172147
42 2 12.4512 4.24622 6.1013 -0.000836067 0.00211599 -0.00349246
43 1 5.05969 5.7705 3.79921 -0.000236241 -0.00140017 0.00252189
44 2 3.01109 8.26325 3.63371 0.0107363 0.00475647 0.00632287
45 2 8.18635 12.8434 5.04379 0.0227707 0.0263465 -0.000428081
46 1 9.65111 11.7275 7.47453 -0.00322222 0.00645951 0.00270951
47 2 9.03585 12.0806 6.78252 0.0068698 0.00690343 -0.0181319
48 2 10.1538 10.9154 7.03542 0.0190171 -0.00925699 -0.00824094
49 1 9.37833 7.00377 9.2995 0.00102351 -0.00482427 -0.0116329
50 2 8.68898 6.55789 8.82906 0.00177925 -0.00726183 -0.0159789
51 2 8.99847 7.33478 10.0924 0.00382278 0.0261033 -0.0122143
52 1 10.9621 11.6037 3.61809 -0.00439587 -0.00346147 0.00151555
53 2 10.1409 11.7698 4.07754 -0.0299194 -0.0050303 0.00229844
54 2 11.4653 11.0468 4.25756 -0.0111198 0.0182731 0.0181219
55 1 6.01615 11.1406 3.36553 0.0062229 -0.00116966 -0.00308578
56 2 5.84477 10.2075 3.29533 -0.0198316 0.00451232 0.0271596
57 2 5.17808 11.6159 3.02033 0.00562534 0.0126796 0.0090771
58 1 6.61823 9.29514 8.5914 -0.00685757 -0.00378063 -0.00406219
59 2 4.7559 11.9966 8.58613 0.00347066 -0.00807475 0.0469894
60 2 7.45343 9.73836 9.04303 -0.0141932 0.0142572 -0.0027137
61 1 7.06671 5.60777 8.58407 -0.000733304 -0.00180006 -0.00135464
62 2 7.07681 5.36053 9.53038 0.0051567 0.00421233 -0.0139474
63 2 6.24178 5.91821 8.33942 0.000106313 3.79712e-05 -0.0154525
64 1 4.88448 11.125 8.036 -0.000757404 -0.00132476 -0.00396329
65 2 5.06198 11.4107 6.41472 0.00925805 0.00732212 -0.0170821
66 2 4.20788 5.35171 6.89769 -0.00235431 0.0103702 -0.00944679
67 1 10.7975 9.37797 6.97808 -0.00217548 0.00504788 -0.0046288
68 2 11.5885 9.36024 6.38287 -0.00349485 0.0237028 0.00799745
69 2 11.1075 9.36314 7.93722 0.0110534 -0.0179192 0.00750043
70 1 11.1445 4.16716 7.40328 0.00387444 -0.00204002 0.000915751
71 2 10.5521 13.2237 7.50686 0.00910755 -0.0147789 0.0195573
72 2 11.3352 4.48962 8.31379 0.0132478 -0.00775087 -0.0105005
73 1 9.01986 6.55714 6.42308 -0.00545492 -0.00380916 -0.00153896
74 2 8.7601 5.9596 7.14285 0.0030474 0.0268466 -0.00890783
75 2 9.66679 7.15474 6.7965 -0.00439014 -0.0224335 0.0026968
76 1 11.4047 5.22353 9.90431 0.00470383 -0.0103118 -0.00463372
77 2 10.8209 5.96732 9.61954 -0.00228999 -0.0235727 0.0147847
78 2 3.43402 6.79098 9.62401 -0.0145304 -0.00870958 -0.00760299
79 1 12.142 9.66594 9.4644 0.00113348 -0.00167109 -0.00211487
80 2 12.7005 8.83403 9.69806 -0.0115774 0.020973 0.0105493
81 2 5.61892 10.6084 8.40945 0.0153139 0.0294938 -0.00698403
82 1 6.71135 5.04084 11.2933 0.00770384 0.00189185 0.0062099
83 2 7.60065 4.83828 11.6132 0.0182708 -0.0125678 0.00416184
84 2 6.14299 4.98534 2.25701 0.0136374 -0.0201361 0.00124827
85 1 9.53446 4.28735 11.9071 0.00441477 -0.00233654 6.93608e-05
86 2 10.0174 4.63747 2.82289 0.0288792 0.00732373 -0.00265202
87 2 10.8952 4.69774 10.5197 -0.0232449 -0.00564856 -0.00815677
88 1 7.33055 13.2055 6.74651 -0.000101583 0.00492792 0.00100374
89 2 6.93826 12.6085 7.42185 -0.0329374 0.00879359 0.0143842
90 2 7.31486 4.21211 7.1883 0.0332324 -0.00393772 -0.0199026
91 1 4.98851 7.67811 5.67529 -0.00303461 -9.15501e-05 -0.00554098
92 2 3.71384 8.93478 5.3419 0.0139012 -0.0082183 0.0135393
93 2 4.56573 7.23502 6.4406 0.00935093 -0.0125652 0.0178561
94 1 4.51716 5.75086 7.76649 -0.00609439 0.000112331 -0.00149307
95 2 4.27631 5.12396 8.44217 0.00281982 0.00872906 0.00408413
96 2 5.1031 6.91574 4.82099 -0.018132 -0.0145107 0.00173407
ITEM: TIMESTEP
3
ITEM: NUMBER OF ATOMS
96
ITEM: BOX BOUNDS pp pp pp
2.9236100000000000e+00 1.2773600000000000e+01
4.0306300000000004e+00 1.3880599999999999e+01
2.1372399999999998e+00 1.1987200000000000e+01
ITEM: ATOMS id type x y z vx vy vz
1 1 8.48854 12.2735 4.32558 0.0104898 -0.000492198 0.0036432
2 2 7.71862 11.8802 3.88312 0.0212274 0.0361 -0.0118033
3 2 9.40944 13.2398 2.3692 0.00127648 0.0196195 0.0200363
4 1 3.52362 11.8277 11.7879 -0.000433844 -0.00047301 0.0059956
5 2 3.27019 11.092 11.2271 -0.017454 0.000965155 0.0109608
6 2 12.6269 11.9702 2.43707 0.00543439 0.0299259 -0.022697
7 1 3.03331 7.47148 3.05918 -0.00275578 -0.00316536 -0.0011222
8 2 12.0038 7.01102 3.197 -0.0523931 -0.000347614 -0.0113663
9 2 7.87958 7.69718 6.16537 0.0047742 -0.0129146 0.0175627
10 1 7.38791 8.64497 6.13874 0.0026715 0.0039114 -0.00900018
11 2 6.49728 8.28657 5.71044 -0.00451407 0.0195229 0.0251389
12 2 6.85804 9.14625 7.61359 -6.51995e-05 0.0290143 -0.0131758
13 1 5.90031 8.40618 2.47226 0.000619265 -0.00105476 0.0001896
14 2 5.4389 8.21089 11.4744 0.016229 -0.0340905 -0.00547157
15 2 5.43103 7.76908 3.05225 0.0182512 0.00793835 -0.00522659
16 1 8.96017 7.53615 2.52223 -0.00674184 0.00144054 -0.00163955
17 2 9.16424 6.59474 2.59867 -0.00628755 0.010357 0.000489325
18 2 7.97822 7.50126 2.55148 0.0148424 -0.00276719 -0.00310212
19 1 3.65287 7.48985 10.2851 -0.00521496 0.00206287 -0.000567324
20 2 3.19513 7.2946 11.1064 -0.0197652 -0.024406 0.00186514
21 2 11.5513 9.84976 10.2366 0.0240029 0.0496483 0.00512523
22 1 10.1672 9.93163 11.4906 -0.00227183 -0.00205766 0.00573998
23 2 10.448 10.5987 2.37456 -0.0162925 0.0109506 -0.0108935
24 2 9.72586 9.17721 11.9166 0.00713312 -0.0283414 -0.0118381
25 1 2.98053 9.60718 5.18771 -0.00444545 0.00645233 0.00459063
26 2 3.50169 10.4734 5.17742 -0.0256221 0.0279774 -0.00636018
27 2 4.42249 6.29214 3.21661 -0.00564754 -0.0140519 0.00580786
28 1 11.1822 5.83839 4.17889 -0.00486375 0.00543227 0.00298504
29 2 11.6786 5.56655 4.90078 0.0134338 -0.000276832 0.0231706
30 2 10.553 6.3919 4.6484 0.00962312 -0.0343666 -0.0114305
31 1 4.54434 11.6913 5.5302 0.00619589 0.00143015 0.00200886
32 2 3.94726 13.2139 5.84989 -0.0171885 -0.0105127 0.0079946
33 2 5.20516 11.5321 4.76986 0.00514135 -0.0346531 -0.00416769
34 1 4.73143 13.3425 9.63561 0.00207738 0.00832848 0.00587706
35 2 4.29222 12.9553 10.4184 0.0129954 0.0113895 -0.0109179
36 2 5.5111 13.7074 10.0026 0.0127392 -0.0109876 0.011948
37 1 8.281 10.9537 9.77043 0.00623353 -0.00887602 0.0054322
38 2 8.93346 11.1886 9.06712 -0.00728214 0.000100365 -0.0237729
39 2 8.8496 10.4906 10.495 -0.0195805 0.00801678 0.00610916
40 1 3.48993 4.30983 5.71277 0.00100761 -0.00064344 0.00169556
41 2 4.43639 5.13755 4.27502 -0.0118004 0.00153613 0.0178077
42 2 12.4506 4.24684 6.10009 -0.00169689 0.000473416 -0.00134159
43 1 5.05953 5.76981 3.80046 -0.000451948 -0.00139102 0.00247431
44 2 3.01641 8.26556 3.63693 0.0104071 0.00392374 0.00625244
45 2 8.19704 12.8564 5.0437 0.0200288 0.0252211 -0.000169475
46 1 9.64952 11.7307 7.47582 -0.00310074 0.0063214 0.0023944
47 2 9.03945 12.0836 6.77407 0.00770855 0.00507662 -0.0153647
48 2 10.1626 10.9115 7.03192 0.0158673 -0.00595482 -0.0053562
49 1 9.37896 7.00138 9.29366 0.00147026 -0.00471965 -0.01172
50 2 8.68878 6.55387 8.82078 -0.00247218 -0.0086075 -0.0168194
51 2 8.99994 7.34808 10.0874 0.00216449 0.0268211 -0.0085908
52 1 10.96 11.6019 3.61883 -0.00397598 -0.00364627 0.00148553
53 2 10.1246 11.7677 4.07919 -0.0344868 -0.00352275 0.00382568
54 2 11.4599 11.0559 4.26618 -0.0105344 0.0180573 0.0163413
55 1 6.0192 11.1402 3.36397 0.00595062 -0.000638277 -0.00311607
56 2 5.83464 10.2087 3.3083 -0.0206523 0.000496767 0.0246917
57 2 5.18206 11.621 3.02452 0.0103021 0.0076247 0.00765409
58 1 6.61486 9.29326 8.58943 -0.00660042 -0.00373609 -0.00384366
59 2 4.75813 11.9913 8.60914 0.00524314 -0.0131411 0.0444388
60 2 7.44543 9.74541 9.04125 -0.0178065 0.0138036 -0.00433769
61 1 7.06659 5.6068 8.58338 0.00022053 -0.00208813 -0.00142061
62 2 7.07879 5.36271 9.52379 0.00262853 0.00444521 -0.0119918
63 2 6.23899 5.91919 8.33124 -0.0108627 0.00369727 -0.017064
64 1 4.88401 11.1245 8.03399 -0.00111268 -0.000666705 -0.00405427
65 2 5.06548 11.4147 6.40552 0.00488319 0.00849883 -0.019209
66 2 4.20673 5.35652 6.89312 -0.00228982 0.008709 -0.00863458
67 1 10.7963 9.38049 6.97583 -0.00233814 0.00502674 -0.00431836
68 2 11.5872 9.3724 6.38704 -0.00140443 0.0249172 0.00830807
69 2 11.1135 9.35434 7.94014 0.0127509 -0.0171993 0.00385279
70 1 11.1464 4.16613 7.40371 0.00382818 -0.00211563 0.000791026
71 2 10.5568 13.2162 7.51649 0.0099603 -0.0152851 0.0188318
72 2 11.342 4.48596 8.30899 0.0140848 -0.00668113 -0.00835963
73 1 9.01712 6.55521 6.42224 -0.00549523 -0.0038899 -0.00185967
74 2 8.76176 5.9737 7.13843 0.00313571 0.0287169 -0.00798018
75 2 9.66463 7.14352 6.79853 -0.00388662 -0.022025 0.00544756
76 1 11.4071 5.21839 9.90195 0.00488687 -0.0102759 -0.00478916
77 2 10.8194 5.95554 9.62718 -0.00362311 -0.0230394 0.0154226
78 2 3.42666 6.78683 9.62109 -0.0146938 -0.00743534 -0.0038082
79 1 12.1425 9.66506 9.46338 0.00103391 -0.00176237 -0.00198521
80 2 12.6943 8.84526 9.70322 -0.012987 0.0232746 0.0102627
81 2 5.62769 10.6224 8.40675 0.0197643 0.0259381 -0.00402239
82 1 6.71517 5.04176 11.2964 0.00759891 0.00177891 0.00644238
83 2 7.60979 4.8319 11.6153 0.0178733 -0.0128442 0.00399893
84 2 6.15067 4.97556 2.25665 0.0168793 -0.0189297 -0.0024526
85 1 9.53668 4.28618 11.9072 0.00447793 -0.00232006 0.000257486
86 2 10.0317 4.6412 2.82111 0.0282332 0.00744004 -0.00486908
87 2 10.8829 4.69471 10.5162 -0.0255221 -0.00649935 -0.00607044
88 1 7.33049 13.2079 6.74705 -0.000146856 0.00469616 0.00113668
89 2 6.9221 12.6135 7.42832 -0.0313841 0.0116311 0.0110941
90 2 7.33142 4.21013 7.17847 0.0329415 -0.00347946 -0.0190515
91 1 4.98696 7.67798 5.67237 -0.00319358 -0.000436017 -0.00607641
92 2 3.72011 8.93032 5.34881 0.0107109 -0.00871752 0.0139585
93 2 4.57131 7.22846 6.44882 0.0131822 -0.0132954 0.0145906
94 1 4.51408 5.75098 7.7657 -0.00622967 0.000363727 -0.00166836
95 2 4.27767 5.12761 8.44464 0.00252757 0.00575479 0.00571337
96 2 5.09339 6.90988 4.82477 -0.020494 -0.00887305 0.0131628
ITEM: TIMESTEP
4
ITEM: NUMBER OF ATOMS
96
ITEM: BOX BOUNDS pp pp pp
2.9236100000000000e+00 1.2773600000000000e+01
4.0306300000000004e+00 1.3880599999999999e+01
2.1372399999999998e+00 1.1987200000000000e+01
ITEM: ATOMS id type x y z vx vy vz
1 1 8.49379 12.2733 4.32739 0.0105411 -0.00038323 0.00363328
2 2 7.72903 11.8985 3.87773 0.0198681 0.0367553 -0.010001
3 2 9.41003 13.2496 2.37923 0.000998897 0.0190402 0.0202136
4 1 3.52355 11.8274 11.7909 0.00017455 -0.000549343 0.00567813
5 2 3.2614 11.0923 11.2323 -0.017615 0.000299582 0.00988059
6 2 12.6275 11.9856 2.42712 -0.00320408 0.0317213 -0.0168118
7 1 3.03193 7.46992 3.05862 -0.00285483 -0.00308146 -0.00110059
8 2 11.978 7.01078 3.1917 -0.0494991 9.92031e-05 -0.00981396
9 2 7.88244 7.69279 6.17498 0.00622832 -0.0043282 0.0206067
10 1 7.38921 8.64671 6.13415 0.00253247 0.003062 -0.00931286
11 2 6.49533 8.29795 5.72386 -0.00328648 0.0256363 0.0282396
12 2 6.85825 9.16044 7.60688 0.000833521 0.0276732 -0.01345
13 1 5.90054 8.40558 2.47233 0.000347937 -0.00131724 6.24929e-05
14 2 5.44757 8.19427 11.4725 0.0184536 -0.0322761 -0.00182681
15 2 5.44084 7.77402 3.04909 0.0205953 0.0112697 -0.00687636
16 1 8.95672 7.53682 2.52141 -0.00699662 0.00125676 -0.00165502
17 2 9.16125 6.60039 2.59882 -0.00558193 0.0117819 0.000113654
18 2 7.98657 7.50037 2.54987 0.0175911 -0.000816135 -0.00330459
19 1 3.65031 7.49089 10.2847 -0.00506255 0.00203319 -0.000966617
20 2 3.1848 7.28193 11.1078 -0.0211118 -0.0259357 0.00328666
21 2 11.5635 9.8742 10.2386 0.0248528 0.0480214 0.00279925
22 1 10.166 9.93065 11.4934 -0.00222767 -0.00188233 0.00565253
23 2 10.4396 10.6036 2.36899 -0.0175258 0.00864401 -0.0111116
24 2 9.7294 9.16275 11.911 0.00725906 -0.0289613 -0.0104587
25 1 2.97838 9.61033 5.18997 -0.00412926 0.00610992 0.00447439
26 2 3.48821 10.4875 5.17448 -0.0282139 0.0279818 -0.00530246
27 2 4.41974 6.28482 3.21971 -0.00536763 -0.0150112 0.00645605
28 1 11.1797 5.84115 4.1803 -0.00515905 0.00551102 0.00267451
29 2 11.687 5.56532 4.91369 0.0196573 -0.00417408 0.0273627
30 2 10.5571 6.37492 4.64258 0.00569632 -0.0325533 -0.0110196
31 1 4.54752 11.692 5.53125 0.00651753 0.00144251 0.00216663
32 2 3.9376 13.2105 5.85349 -0.0212313 -0.00309042 0.00637253
33 2 5.20786 11.5149 4.76833 0.0055413 -0.0338587 -0.00199552
34 1 4.73238 13.3467 9.63852 0.00179657 0.00820815 0.00571451
35 2 4.29845 12.9608 10.4129 0.0115238 0.0103685 -0.0103437
36 2 5.51889 13.7026 10.0091 0.018275 -0.00818388 0.0136399
37 1 8.28418 10.9493 9.7732 0.00644936 -0.00901887 0.00558787
38 2 8.92956 11.1888 9.05496 -0.00839368 0.000442255 -0.0243007
39 2 8.83929 10.4952 10.4974 -0.020995 0.00996677 0.00360291
40 1 3.49051 4.30944 5.71362 0.00129635 -0.00093596 0.0016982
41 2 4.431 5.13863 4.28402 -0.00938758 0.00296906 0.0179782
42 2 12.4495 4.24669 6.09996 -0.00260747 -0.00095546 0.000783823
43 1 5.05924 5.76911 3.80168 -0.000715246 -0.00144124 0.00245601
44 2 3.02149 8.26718 3.63996 0.00979097 0.00203143 0.00555711
45 2 8.20637 12.8687 5.04362 0.0173459 0.0236872 -0.000361602
46 1 9.64801 11.7338 7.47693 -0.00294859 0.00612812 0.00202072
47 2 9.04356 12.0856 6.76715 0.00876199 0.00310549 -0.0121434
48 2 10.1697 10.9095 7.03006 0.01215 -0.00196649 -0.00179768
49 1 9.3798 6.99905 9.28778 0.00186254 -0.00461007 -0.011769
50 2 8.68651 6.54928 8.81224 -0.00637337 -0.00941203 -0.0167906
51 2 9.00063 7.3616 10.0838 0.000792403 0.0269415 -0.00624861
52 1 10.9581 11.6 3.61957 -0.00366759 -0.00379452 0.00151092
53 2 10.1064 11.7662 4.08137 -0.0371937 -0.0024214 0.00437656
54 2 11.4548 11.0648 4.2739 -0.00982012 0.0176462 0.0145473
55 1 6.0221 11.14 3.36241 0.00567536 -0.00012399 -0.00312991
56 2 5.82412 10.208 3.32002 -0.021338 -0.00327241 0.0221503
57 2 5.18838 11.6235 3.02798 0.0148388 0.00263813 0.00608716
58 1 6.61163 9.29141 8.58756 -0.00633354 -0.00366836 -0.00367609
59 2 4.76114 11.9834 8.63057 0.00660224 -0.0186456 0.0407236
60 2 7.43562 9.75217 9.03869 -0.0213702 0.0131154 -0.00577612
61 1 7.06693 5.60568 8.58265 0.00110873 -0.00232964 -0.0015622
62 2 7.07944 5.36497 9.51839 -0.000118032 0.00456747 -0.00933172
63 2 6.23091 5.9219 8.32236 -0.0205884 0.00679211 -0.0181445
64 1 4.88336 11.1243 8.03195 -0.0014198 4.87279e-05 -0.00402597
65 2 5.06686 11.4192 6.39552 0.000908788 0.00938631 -0.0201917
66 2 4.20559 5.36042 6.88905 -0.00230499 0.00673589 -0.00748517
67 1 10.7951 9.383 6.97376 -0.00250291 0.00502407 -0.00392712
68 2 11.5871 9.38515 6.39118 0.00112002 0.0260615 0.00793622
69 2 11.1202 9.34594 7.94107 0.0138508 -0.016318 -0.00038052
70 1 11.1483 4.16505 7.40407 0.00374988 -0.0022402 0.000643087
71 2 10.5621 13.2085 7.52569 0.0109742 -0.0155129 0.0178204
72 2 11.3493 4.48294 8.30543 0.0151603 -0.0052405 -0.00569964
73 1 9.01436 6.55325 6.42122 -0.00552153 -0.00391876 -0.00227736
74 2 8.76324 5.98832 7.13487 0.00234178 0.0288642 -0.0056753
75 2 9.6629 7.13271 6.80195 -0.00271493 -0.0208331 0.00817135
76 1 11.4096 5.21325 9.89953 0.00500724 -0.0102964 -0.00486337
77 2 10.8172 5.94428 9.63496 -0.00487512 -0.0215478 0.0152991
78 2 3.41933 6.78355 9.6202 -0.01445 -0.00533262 0.000387171
79 1 12.143 9.66417 9.46241 0.000874628 -0.00174151 -0.0018889
80 2 12.6875 8.8573 9.70832 -0.0134719 0.0241547 0.0103688
81 2 5.63868 10.6344 8.40543 0.0239464 0.0218857 -0.00160309