ITEM: TIMESTEP
0
ITEM: NUMBER OF ATOMS
96
ITEM: BOX BOUNDS pp pp pp
2.9236100000000000e+00 1.2773600000000000e+01
4.0306300000000004e+00 1.3880599999999999e+01
2.1372399999999998e+00 1.1987200000000000e+01
ITEM: ATOMS id type x y z vx vy vz
1 1 8.46742 12.2745 4.31781 -0.0107806 0.000331169 -0.00426867
2 2 7.67837 11.8142 3.91671 -0.0161535 -0.0287543 0.0221931
3 2 9.40713 13.206 2.32829 -0.000543894 -0.0113198 -0.0212563
4 1 3.52626 11.8285 11.7751 0.00177305 0.000402158 -0.0065619
5 2 3.30352 11.0884 11.2019 0.0155938 -0.0018903 -0.0135002
6 2 12.5932 11.9142 2.49745 -0.0210776 -0.0276034 0.0322604
7 1 3.03965 7.47853 3.06116 0.00402763 0.00403761 0.000705696
8 2 12.0995 7.00219 3.22607 0.0356994 -0.0139251 0.0180377
9 2 7.88189 7.74997 6.14529 0.00942467 0.0352224 -0.00194549
10 1 7.38164 8.63395 6.15501 -0.00372215 -0.00682093 0.00712563
11 2 6.51102 8.2755 5.67583 0.00910179 0.00879326 -0.00873036
12 2 6.86249 9.0839 7.63702 0.0045103 -0.032876 0.00990399
13 1 5.89786 8.40707 2.47183 -0.00175794 -0.000126297 -6.04105e-05
14 2 5.41427 8.28453 11.4974 -0.00956074 0.0385893 0.0154539
15 2 5.40793 7.77198 3.05111 -0.00428633 0.0115471 -0.00705899
16 1 8.97204 7.53229 2.5255 0.00501028 -0.00244759 0.00164119
17 2 9.1781 6.58449 2.59583 0.00699675 0.00102614 -0.00239721
18 2 7.96995 7.51418 2.55653 0.00895291 0.00969337 0.0018926
19 1 3.66435 7.4863 10.2844 0.00639336 -0.00121092 -0.001221
20 2 3.22445 7.33371 11.1132 0.00844223 0.0138082 0.00960587
21 2 11.5074 9.74592 10.217 -0.0201215 -0.0531067 -0.0140664
22 1 10.1719 9.93666 11.4791 0.00251184 0.00299682 -0.00559577
23 2 10.4762 10.57 2.39136 0.0123051 -0.0163912 0.00426998
24 2 9.70941 9.22517 11.9443 -0.0100531 0.0178314 0.0146841
25 1 2.99017 9.59319 5.17799 0.00492897 -0.00738974 -0.00515235
26 2 3.54237 10.4268 5.19329 0.0153266 -0.0152235 0.00918775
27 2 4.43493 6.3134 3.20947 0.00679183 0.0060773 -0.000494717
28 1 11.1894 5.82882 4.1719 0.00192383 -0.00385339 -0.0037666
29 2 11.6813 5.5483 4.88023 0.015514 -0.018308 0.00292737
30 2 10.5344 6.45316 4.66231 -0.00317773 0.0213681 -0.000944793
31 1 4.53322 11.6885 5.52734 -0.00497962 -0.00129445 -0.000687959
32 2 3.96482 13.2605 5.82838 0.00127941 0.0325341 -0.0128024
33 2 5.19812 11.6029 4.78682 -0.00111536 0.0353965 0.012277
34 1 4.72588 13.3253 9.62376 -0.00344036 -0.00892088 -0.00570582
35 2 4.26625 12.9326 10.4342 -0.0105607 -0.00970557 0.00182732
36 2 5.50594 13.7397 9.98599 0.00467635 0.0199452 -0.00527251
37 1 8.26986 10.9704 9.76087 -0.00476029 0.00767325 -0.00392779
38 2 8.94423 11.1935 9.10475 0.00364022 0.00640997 0.0109723
39 2 8.87498 10.4855 10.4714 0.00313751 0.00357859 -0.0171643
40 1 3.48907 4.3102 5.70931 4.99488e-05 -5.74909e-05 -0.00179936
41 2 4.4648 5.13784 4.24285 0.0146955 0.000722437 -0.013408
42 2 12.4508 4.23894 6.11135 -0.00112262 -0.00770665 0.00982195
43 1 5.05971 5.77279 3.79522 -0.000126816 0.00173125 -0.00284847
44 2 2.99508 8.25771 3.62603 -0.0102039 -0.000817624 -0.00293235
45 2 8.14624 12.8027 5.04651 -0.0303091 -0.0271387 0.00399139
46 1 9.65611 11.7178 7.47003 0.00339123 -0.00641324 -0.00310294
47 2 9.02605 12.067 6.81388 -0.00729685 -0.01045 0.0222239
48 2 10.1207 10.9334 7.05148 -0.0233623 0.0121238 0.0112988
49 1 9.37784 7.01121 9.31668 0.000315543 0.00508078 0.011258
50 2 8.67679 6.56497 8.84974 -0.0137807 0.00218711 0.0113131
51 2 8.98888 7.29838 10.1214 -0.00852776 -0.0222103 0.0269481
52 1 10.9699 11.6083 3.6156 0.006105 0.00275196 -0.00186378
53 2 10.1714 11.7815 4.08001 0.00963692 0.0107886 0.00649417
54 2 11.4826 11.0196 4.22661 0.0114875 -0.017562 -0.0229096
55 1 6.00625 11.1435 3.37005 -0.00693022 0.0024785 0.00293857
56 2 5.87278 10.1925 3.24947 0.0178157 -0.0142138 -0.033578
57 2 5.17944 11.5862 3.00364 0.0064325 -0.0259567 -0.0131569
58 1 6.62902 9.30082 8.59809 0.00746555 0.00371867 0.0048898
59 2 4.75554 11.9998 8.51392 0.00328246 -0.0017584 -0.0468914
60 2 7.4672 9.71694 9.04333 0.00491801 -0.0136369 -0.00215148
61 1 7.0699 5.60977 8.58617 0.00333107 0.00088434 0.00155283
62 2 7.06413 5.35531 9.55259 -0.0112805 -0.00232894 0.013557
63 2 6.21716 5.9265 8.35844 -0.0303864 0.0102941 0.0101464
64 1 4.88478 11.1282 8.04142 -0.000326617 0.00264733 0.00310935
65 2 5.03776 11.403 6.43279 -0.0228477 -0.00284676 0.00597418
66 2 4.21192 5.33354 6.91261 0.00329584 -0.0131466 0.00983262
67 1 10.8004 9.37028 6.9854 0.00179189 -0.00526591 0.00492809
68 2 11.5966 9.32768 6.37374 0.00614511 -0.0195303 -0.00302864
69 2 11.0965 9.39117 7.92043 -0.00271821 0.0192467 -0.0129945
70 1 11.1387 4.17022 7.40174 -0.00379919 0.00212967 -0.00105976
71 2 10.5399 13.2441 7.47684 -0.0073348 0.0121366 -0.0199059
72 2 11.3163 4.50221 8.33215 -0.0125737 0.00812763 0.0125312
73 1 9.02796 6.56253 6.42498 0.00537308 0.00332746 0.00114805
74 2 8.75819 5.92836 7.1539 0.00163347 -0.0125235 0.00373934
75 2 9.6722 7.18662 6.79822 0.00157186 0.0185842 0.0046449
76 1 11.3982 5.23923 9.9107 -0.00396026 0.0106813 0.00378395
77 2 10.8213 6.00084 9.60113 -0.00168407 0.0195136 -0.00851397
78 2 3.45411 6.80379 9.64193 0.0114857 0.00642174 0.014863
79 1 12.1402 9.66792 9.46794 -0.00110071 0.000824559 0.00262433
80 2 12.7125 8.81146 9.68057 0.0034917 -0.00753476 -0.0132418
81 2 5.60532 10.5586 8.42726 -0.00388893 -0.0351629 0.0166065
82 1 6.69935 5.0378 11.2845 -0.00838713 -0.00212447 -0.00563133
83 2 7.57514 4.85576 11.6077 -0.0141655 0.0103521 -0.00262446
84 2 6.13029 5.018 2.24629 -0.00363805 0.0232572 -0.0125631
85 1 9.52785 4.29064 11.9073 -0.00447444 0.00191549 0.000213422
86 2 9.97439 4.62763 2.82461 -0.0273388 -0.00525713 0.00139078
87 2 10.9224 4.70489 10.5373 0.0120813 0.00449836 0.0152959
88 1 7.33068 13.198 6.74529 0.000121605 -0.00479529 -0.000663019
89 2 6.98917 12.5983 7.39594 0.0336812 -0.00717822 -0.0180192
90 2 7.26487 4.21577 7.21767 -0.033053 -0.000792724 0.0179283
91 1 4.9929 7.6776 5.68212 0.00292878 -0.00064663 0.00347166
92 2 3.68897 8.94032 5.32342 -0.0173407 -0.0038051 -0.0106443
93 2 4.55855 7.24961 6.41005 -0.00162929 0.00530377 -0.0202658
94 1 4.52593 5.75112 7.76839 0.00555608 0.00034457 0.00111181
95 2 4.27212 5.1055 8.43999 -0.00221753 -0.0147624 0.00102402
96 2 5.12408 6.9492 4.84423 0.00963275 0.0289407 0.0315412
ITEM: TIMESTEP
1
ITEM: NUMBER OF ATOMS
96
ITEM: BOX BOUNDS pp pp pp
2.9236100000000000e+00 1.2773600000000000e+01
4.0306300000000004e+00 1.3880599999999999e+01
2.1372399999999998e+00 1.1987200000000000e+01
ITEM: ATOMS id type x y z vx vy vz
1 1 8.46199 12.2746 4.31562 -0.0109692 0.000183866 -0.00449691
2 2 7.67104 11.8004 3.92846 -0.0129229 -0.0263411 0.0245922
3 2 9.40698 13.2013 2.31755 -3.84745e-05 -0.00744532 -0.0216743
4 1 3.52715 11.8287 11.7718 0.00172781 0.000408295 -0.0064626
5 2 3.31116 11.0875 11.1951 0.0149448 -0.00137672 -0.0134327
6 2 12.5829 11.9003 2.51321 -0.0187447 -0.0279714 0.0298152
7 1 3.04181 7.48063 3.06146 0.00461569 0.00435715 0.000493177
8 2 12.1152 6.99361 3.23557 0.0267941 -0.0207662 0.0200282
9 2 7.88784 7.76812 6.14533 0.014589 0.0363974 0.00198769
10 1 7.3797 8.63042 6.15844 -0.00405098 -0.00721802 0.00659444
11 2 6.51584 8.28163 5.67256 0.0101474 0.0153959 -0.0044796
12 2 6.86503 9.0673 7.64174 0.00560452 -0.0334271 0.00904922
13 1 5.89693 8.40695 2.47183 -0.00191963 -0.000322824 9.30681e-05
14 2 5.40967 8.30394 11.5053 -0.00920354 0.0388862 0.0157219
15 2 5.40665 7.77894 3.04681 -0.00117932 0.0158456 -0.00980826
16 1 8.97443 7.53101 2.52632 0.00455353 -0.00266683 0.0016423
17 2 9.18156 6.58578 2.59451 0.00677511 0.00391579 -0.00283556
18 2 7.97615 7.51936 2.5574 0.015552 0.0109056 0.00160354
19 1 3.66764 7.48579 10.2837 0.00675229 -0.000793867 -0.00157125
20 2 3.22786 7.33985 11.1188 0.00531355 0.0107844 0.0123955
21 2 11.4975 9.71935 10.2095 -0.0196076 -0.0529697 -0.015737
22 1 10.1732 9.93821 11.4763 0.00255242 0.00320267 -0.00540454
23 2 10.4822 10.5617 2.39282 0.0117242 -0.0165871 0.00140521
24 2 9.70412 9.23321 11.9516 -0.0110573 0.0143433 0.0140556
25 1 2.99262 9.58946 5.17537 0.00483582 -0.00748674 -0.00531339
26 2 3.54945 10.4205 5.19802 0.013077 -0.0100448 0.00970483
27 2 4.43841 6.3158 3.20969 0.00711226 0.0035147 0.00141743
28 1 11.1901 5.82703 4.17002 0.00106087 -0.00332381 -0.00371295
29 2 11.6906 5.53813 4.88312 0.020856 -0.0219406 0.00781662
30 2 10.534 6.46223 4.66061 0.00215516 0.0144841 -0.00596175
31 1 4.53079 11.6879 5.5271 -0.00475446 -0.00123905 -0.000280261
32 2 3.9647 13.2775 5.82182 -0.0013318 0.0343627 -0.0132877
33 2 5.19795 11.6205 4.79332 0.00060519 0.0349377 0.0135665
34 1 4.72409 13.3208 9.62096 -0.00369137 -0.00900766 -0.00545469
35 2 4.2615 12.9281 10.4341 -0.00820427 -0.00814618 -0.00247805
36 2 5.50876 13.7499 9.98363 0.00579225 0.0204924 -0.00439726
37 1 8.26759 10.9741 9.75903 -0.00429852 0.00730119 -0.00344965
38 2 8.94583 11.1973 9.10901 0.00272183 0.0090718 0.00584278
39 2 8.87515 10.4881 10.4623 -0.00256461 0.00658721 -0.0191355
40 1 3.48914 4.31017 5.7084 0.000174394 -3.16457e-06 -0.00185264
41 2 4.47203 5.13816 4.23656 0.014002 0.000365267 -0.0116703
42 2 12.4501 4.23461 6.11677 -0.00142842 -0.00959619 0.0117851
43 1 5.05963 5.7737 3.79376 -0.0001593 0.00190184 -0.0030159
44 2 2.99009 8.25797 3.62503 -0.00969457 0.00209042 -0.000984516
45 2 8.13056 12.7892 5.04896 -0.0321751 -0.026625 0.00590795
46 1 9.65781 11.7146 7.46849 0.00338506 -0.00621816 -0.00301744
47 2 9.02212 12.0616 6.82502 -0.00874467 -0.0107949 0.021927
48 2 10.109 10.9392 7.05699 -0.0228193 0.0100741 0.0102109
49 1 9.37809 7.01377 9.32228 0.000641597 0.0051371 0.011144
50 2 8.66909 6.56568 8.85499 -0.0165408 0.000848587 0.00986288
51 2 8.98435 7.28761 10.1361 -0.00924253 -0.0209817 0.0315125
52 1 10.9731 11.6096 3.61463 0.0067079 0.00249692 -0.00201275
53 2 10.1744 11.7874 4.08412 0.00272758 0.0125855 0.00986824
54 2 11.4883 11.011 4.21481 0.0109749 -0.0168411 -0.0241569
55 1 6.00274 11.1448 3.37151 -0.00710091 0.00270734 0.0028809
56 2 5.8816 10.1849 3.23224 0.0176245 -0.0155825 -0.035122
57 2 5.18341 11.5723 2.99673 0.00896132 -0.0290463 -0.0146091
58 1 6.63279 9.30266 8.60061 0.00758556 0.0036138 0.0051776
59 2 4.75779 11.9985 8.49097 0.00571474 -0.00264983 -0.0443308
60 2 7.46907 9.71032 9.0419 0.00288911 -0.0126536 -0.0034406
61 1 7.07174 5.61014 8.58698 0.0039114 0.000637712 0.00171565
62 2 7.05808 5.35439 9.5589 -0.0127628 -0.00125187 0.0111168
63 2 6.20007 5.93228 8.36315 -0.0365755 0.0123199 0.00890995
64 1 4.88454 11.1296 8.04288 -0.000620829 0.00279805 0.00269359
65 2 5.02528 11.402 6.43469 -0.0268104 -0.00139005 0.00166942
66 2 4.2137 5.32688 6.91744 0.003916 -0.0133097 0.00932558
67 1 10.8013 9.36762 6.98785 0.0017115 -0.00539674 0.00480357
68 2 11.5997 9.3183 6.37286 0.00579451 -0.0179371 -0.00030977
69 2 11.096 9.40087 7.91388 0.00093023 0.0195143 -0.0126394
70 1 11.1368 4.17131 7.40121 -0.00370607 0.00225902 -0.0010195
71 2 10.5363 13.2499 7.46697 -0.00693992 0.0110397 -0.0194433
72 2 11.31 4.50612 8.33828 -0.0129637 0.00728102 0.0116315
73 1 9.03065 6.56414 6.42555 0.00538704 0.00312142 0.00116178
74 2 8.7596 5.92371 7.15496 0.00413692 -0.00580112 0.000258234
75 2 9.67251 7.1953 6.80108 -0.000553254 0.0158552 0.00669872
76 1 11.3963 5.24461 9.9125 -0.0037034 0.0108438 0.0034281
77 2 10.8201 6.00995 9.59763 -0.00296868 0.0166437 -0.00524077
78 2 3.45945 6.80641 9.64967 0.00969518 0.00360753 0.0157018
79 1 12.1397 9.66823 9.4693 -0.00100417 0.00041091 0.00280428
80 2 12.7134 8.80909 9.67364 0.000304724 -0.00186773 -0.0145469
81 2 5.60406 10.5409 8.43629 -0.00165624 -0.0348201 0.0192831
82 1 6.69509 5.03672 11.2817 -0.00867065 -0.00217201 -0.00553546
83 2 7.56871 4.86068 11.6066 -0.0112978 0.00926305 -0.00158835
84 2 6.12919 5.02986 2.23922 -0.00109217 0.0241436 -0.015268
85 1 9.52559 4.29154 11.9074 -0.00456549 0.00166255 0.000190982
86 2 9.96106 4.62528 2.82556 -0.0257365 -0.00403097 0.00282671
87 2 10.9274 4.70719 10.5455 0.007745 0.00495533 0.0172888
88 1 7.33075 13.1957 6.74498 0.000174299 -0.00447625 -0.000601594
89 2 7.00581 12.5943 7.38708 0.0325925 -0.009309 -0.0168082
90 2 7.24844 4.21465 7.22621 -0.0325664 -0.00396285 0.0159775
91 1 4.99437 7.67724 5.68367 0.00298233 -0.000720132 0.0027236
92 2 3.6804 8.93685 5.31842 -0.0165443 -0.0104955 -0.00929077
93 2 4.55807 7.25134 6.40028 -0.000747696 0.00126225 -0.0180422
94 1 4.52866 5.75131 7.76893 0.00533484 0.000367929 0.00106986
95 2 4.27118 5.09786 8.44087 -0.00136469 -0.0153885 0.00236348
96 2 5.12817 6.96459 4.86243 0.00685863 0.0320188 0.0403588
ITEM: TIMESTEP
2
ITEM: NUMBER OF ATOMS
96
ITEM: BOX BOUNDS pp pp pp
2.9236100000000000e+00 1.2773600000000000e+01
4.0306300000000004e+00 1.3880599999999999e+01
2.1372399999999998e+00 1.1987200000000000e+01
ITEM: ATOMS id type x y z vx vy vz
1 1 8.45645 12.2747 4.31331 -0.0111898 2.10865e-05 -0.00471249
2 2 7.66545 11.7879 3.9413 -0.00933365 -0.024039 0.0264832
3 2 9.40709 13.1986 2.30662 0.000523799 -0.00337493 -0.0219675
4 1 3.52799 11.8289 11.7686 0.00154717 0.000406434 -0.00627604
5 2 3.31846 11.087 11.1885 0.0142528 -0.000561184 -0.0130889
6 2 12.5745 11.8862 2.52727 -0.0142346 -0.0284537 0.0255809
7 1 3.04427 7.48289 3.06165 0.0052098 0.00468713 0.000266852
8 2 12.1263 6.98142 3.2461 0.0176663 -0.0279889 0.0220798
9 2 7.89648 7.78637 6.14728 0.0200234 0.0356818 0.00558217
10 1 7.37759 8.62673 6.1616 -0.00437062 -0.0074288 0.00608315
11 2 6.52117 8.2909 5.67135 0.0111171 0.0212083 -0.000566972
12 2 6.86809 9.05047 7.64607 0.00659705 -0.0337737 0.00837941
13 1 5.89594 8.40675 2.47192 -0.00198595 -0.000436288 0.000265251
14 2 5.40507 8.32342 11.5131 -0.00954326 0.0388879 0.0149088
15 2 5.40675 7.78783 3.0413 0.00113297 0.0190801 -0.011752
16 1 8.97659 7.52962 2.52714 0.00415098 -0.00283367 0.00163722
17 2 9.18488 6.58841 2.59299 0.00647029 0.00624573 -0.00320472
18 2 7.9855 7.52509 2.55813 0.0213351 0.0118302 0.00136723
19 1 3.6711 7.48551 10.2828 0.00710052 -0.000327237 -0.00183528
20 2 3.22976 7.34449 11.1256 0.00255769 0.00787554 0.0144827
21 2 11.4878 9.69295 10.2013 -0.0194736 -0.052384 -0.0170478
22 1 10.1745 9.93986 11.4737 0.00256976 0.00336305 -0.00514714
23 2 10.4879 10.5534 2.39277 0.0113501 -0.0163106 -0.00176328
24 2 9.69835 9.23951 11.9584 -0.0118793 0.0110209 0.0126775
25 1 2.99501 9.5857 5.17268 0.00467817 -0.00753576 -0.00547806
26 2 3.55545 10.4168 5.20299 0.0109647 -0.00492325 0.0101923
27 2 4.44204 6.31691 3.21089 0.00736782 0.00103259 0.00335214
28 1 11.1905 5.8255 4.16819 0.000266951 -0.00282059 -0.00354265
29 2 11.7022 5.52636 4.88805 0.0245581 -0.0245765 0.0108849
30 2 10.5366 6.46764 4.65635 0.00805478 0.00699218 -0.0109741
31 1 4.52847 11.6873 5.52706 -0.00458233 -0.00116966 0.000111741
32 2 3.96349 13.2949 5.81509 -0.00298332 0.0343036 -0.0134428
33 2 5.19873 11.6378 4.80039 0.00265128 0.0342242 0.0145021
34 1 4.72219 13.3163 9.61831 -0.00386696 -0.00903983 -0.00514798
35 2 4.25805 12.9245 10.4317 -0.0054615 -0.00637719 -0.00703573
36 2 5.51173 13.7602 9.98159 0.00530214 0.0201154 -0.00397562
37 1 8.26556 10.9777 9.75742 -0.00382673 0.00694197 -0.00298677
38 2 8.94695 11.2026 9.11059 0.00165899 0.0119421 0.000421323
39 2 8.87242 10.4921 10.4523 -0.00832853 0.00930151 -0.0204538
40 1 3.48924 4.3102 5.70746 0.000206856 0.000171537 -0.00191211
41 2 4.4788 5.13821 4.23118 0.0129182 -0.000315811 -0.00980703
42 2 12.4494 4.22934 6.12314 -0.00148893 -0.011409 0.0136184
43 1 5.05955 5.77469 3.7922 -0.000150577 0.00207305 -0.00320761
44 2 2.98539 8.2598 3.62505 -0.00913816 0.00526473 0.00104446
45 2 8.11406 12.7761 5.05242 -0.0334921 -0.0258155 0.00798042
46 1 9.6595 11.7116 7.46701 0.0033514 -0.00593276 -0.0028291
47 2 9.01731 12.0562 6.83581 -0.0108214 -0.0107441 0.0208837
48 2 10.0979 10.9435 7.06169 -0.0213273 0.00646105 0.00811746
49 1 9.37848 7.01635 9.32782 0.000855865 0.00517325 0.0110623
50 2 8.66025 6.56582 8.8596 -0.0182966 -2.83793e-05 0.00881483
51 2 8.97964 7.2774 10.1529 -0.00919689 -0.0200343 0.0351195
52 1 10.9766 11.6108 3.61359 0.00726182 0.00225208 -0.00214514
53 2 10.1741 11.7941 4.08988 -0.00320642 0.0140368 0.0128893
54 2 11.4936 11.0028 4.20245 0.0100957 -0.0158859 -0.0251534
55 1 5.99915 11.1462 3.37293 -0.00722813 0.00279521 0.00282261
56 2 5.8904 10.1769 3.21435 0.0177734 -0.015682 -0.0362138
57 2 5.1884 11.5572 2.98903 0.0104344 -0.0311954 -0.0163556
58 1 6.63661 9.30443 8.60327 0.0076605 0.00345411 0.00545283
59 2 4.76125 11.9972 8.46959 0.0081389 -0.00226442 -0.0406734
60 2 7.47009 9.70429 9.03989 0.00158599 -0.0112628 -0.00443958
61 1 7.07381 5.61041 8.58789 0.00428502 0.000449736 0.00190544
62 2 7.05137 5.35406 9.56371 -0.0139126 2.35057e-06 0.00767338
63 2 6.18058 5.93882 8.36735 -0.0398565 0.0132526 0.00806955
64 1 4.88416 11.131 8.04411 -0.000863497 0.002793 0.00224729
65 2 5.01095 11.4016 6.43446 -0.0301451 -0.000140679 -0.00238145
66 2 4.21584 5.32023 6.92194 0.00469691 -0.0131233 0.00854376
67 1 10.8021 9.36488 6.9902 0.0016532 -0.00555525 0.00458127
68 2 11.6024 9.30974 6.37343 0.0049561 -0.0162451 0.00268315
69 2 11.0974 9.41068 7.90779 0.00486102 0.0197574 -0.0111972
70 1 11.135 4.17248 7.40072 -0.0035846 0.00242963 -0.000938939
71 2 10.533 13.2551 7.4574 -0.00661962 0.00988437 -0.0187355
72 2 11.3033 4.50949 8.34378 -0.0136033 0.00601776 0.0100377
73 1 9.03335 6.56565 6.42614 0.00542808 0.00291258 0.00120986
74 2 8.76233 5.92256 7.15416 0.0067938 0.0012738 -0.00351024
75 2 9.67165 7.20248 6.80492 -0.00300867 0.0126616 0.00857473
76 1 11.3945 5.25007 9.91413 -0.00346248 0.0109967 0.00306819
77 2 10.8183 6.01748 9.59589 -0.0042782 0.0133293 -0.00158927
78 2 3.46381 6.8074 9.65763 0.00761257 -3.95334e-05 0.0158485
79 1 12.1392 9.66833 9.47074 -0.000885667 -2.97933e-05 0.00297622
80 2 12.7128 8.80959 9.66602 -0.00267156 0.0038069 -0.015954
81 2 5.60366 10.5238 8.44654 -0.000482824 -0.0331967 0.0213978
82 1 6.69068 5.03563 11.279 -0.00894053 -0.00221144 -0.00550312
83 2 7.56384 4.86502 11.6061 -0.00801994 0.00808728 -0.000439257
84 2 6.1292 5.04214 2.23102 0.000725115 0.0249855 -0.0170036
85 1 9.52328 4.2923 11.9075 -0.00467898 0.00138831 0.000111921
86 2 9.94865 4.6236 2.82744 -0.0237479 -0.00264742 0.00500236
87 2 10.9301 4.70985 10.5546 0.00348534 0.00597376 0.0187862
88 1 7.33085 13.1935 6.74469 0.000240157 -0.004048 -0.000572254
89 2 7.02176 12.589 7.37913 0.0309793 -0.0126687 -0.0144986
90 2 7.2323 4.21181 7.23365 -0.0318673 -0.00756934 0.0135997
91 1 4.99588 7.67688 5.68484 0.00304776 -0.000675848 0.00201771
92 2 3.67243 8.92982 5.31413 -0.0150567 -0.0177362 -0.00786216
93 2 4.5578 7.25087 6.39201 -0.000723633 -0.00335909 -0.014337
94 1 4.53126 5.75149 7.76946 0.00509728 0.000321756 0.00108107
95 2 4.27076 5.09011 8.44235 -0.000165105 -0.0152305 0.0033829
96 2 5.13094 6.98122 4.88459 0.00444938 0.0337774 0.0471211
ITEM: TIMESTEP
3
ITEM: NUMBER OF ATOMS
96
ITEM: BOX BOUNDS pp pp pp
2.9236100000000000e+00 1.2773600000000000e+01
4.0306300000000004e+00 1.3880599999999999e+01
2.1372399999999998e+00 1.1987200000000000e+01
ITEM: ATOMS id type x y z vx vy vz
1 1 8.4508 12.2747 4.31091 -0.0114327 -0.000141504 -0.00489367
2 2 7.66171 11.7764 3.95494 -0.0056282 -0.0220326 0.0276857
3 2 9.4075 13.1979 2.29558 0.0011076 0.000597638 -0.0220592
4 1 3.5287 11.8291 11.7656 0.00125843 0.000390653 -0.00601869
5 2 3.32541 11.087 11.182 0.0135211 0.000501825 -0.0125195
6 2 12.5687 11.8719 2.53879 -0.00801081 -0.0289207 0.0198841
7 1 3.04702 7.48531 3.06173 0.00575283 0.00500706 4.93122e-05
8 2 12.1329 6.96562 3.25765 0.00925112 -0.0349241 0.0240787
9 2 7.90787 7.8038 6.15092 0.0254654 0.0332583 0.00869532
10 1 7.37533 8.62299 6.16452 -0.00465765 -0.00744737 0.00561412
11 2 6.52696 8.30284 5.67199 0.011928 0.0259743 0.00280919
12 2 6.87163 9.03353 7.65012 0.00744657 -0.0338913 0.0079748
13 1 5.89494 8.40651 2.4721 -0.00194423 -0.000453563 0.000434456
14 2 5.40012 8.34283 11.5202 -0.0105578 0.0386558 0.0130758
15 2 5.40778 7.79802 3.03506 0.00234201 0.0208616 -0.0126046
16 1 8.97858 7.52817 2.52796 0.00383179 -0.00293319 0.00162327
17 2 9.18803 6.59202 2.59131 0.00612422 0.00777541 -0.00348488
18 2 7.99748 7.53119 2.55877 0.0258006 0.0124579 0.00120502
19 1 3.67474 7.48546 10.2819 0.00742108 0.000165806 -0.0020021
20 2 3.23041 7.34773 11.1333 0.000367789 0.00518184 0.015616
21 2 11.478 9.66696 10.1925 -0.0197592 -0.051355 -0.0179828
22 1 10.1757 9.94158 11.4712 0.00255722 0.00346529 -0.00482951
23 2 10.4935 10.5454 2.39106 0.0111941 -0.0155738 -0.00509685
24 2 9.69224 9.24423 11.9643 -0.0123908 0.00807165 0.0105191
25 1 2.9973 9.58193 5.1699 0.00447781 -0.00755044 -0.00564258
26 2 3.56042 10.4155 5.20821 0.00895012 -0.000366137 0.0106519
27 2 4.44578 6.31683 3.21304 0.00752864 -0.00108916 0.0051513
28 1 11.1904 5.82421 4.16647 -0.00041512 -0.00237709 -0.00327067
29 2 11.7151 5.51355 4.89401 0.0264505 -0.0260656 0.0119427
30 2 10.5421 6.46922 4.64963 0.014064 -0.00064749 -0.0156119
31 1 4.52621 11.6867 5.52721 -0.00446933 -0.00108077 0.000465051
32 2 3.96171 13.3118 5.80837 -0.0035665 0.0323279 -0.0132928
33 2 5.2006 11.6547 4.80782 0.00501044 0.0332683 0.0150302
34 1 4.72022 13.3118 9.61581 -0.00396031 -0.00900861 -0.00481067
35 2 4.25604 12.9217 10.4271 -0.00255098 -0.00455913 -0.0115054
36 2 5.51406 13.77 9.97965 0.00332941 0.0188353 -0.00398198
37 1 8.26377 10.9811 9.75604 -0.00336004 0.00661682 -0.00256797
38 2 8.94749 11.2093 9.10943 0.000374514 0.0148791 -0.0050029
39 2 8.86682 10.4974 10.4418 -0.0138266 0.0115697 -0.0209986
40 1 3.48934 4.31034 5.70649 0.00013768 0.000468607 -0.00197312
41 2 4.48495 5.13784 4.22675 0.0115498 -0.00126751 -0.0078717
42 2 12.4486 4.2232 6.13038 -0.00125802 -0.013098 0.0152852
43 1 5.05948 5.77577 3.79055 -0.000101464 0.00222456 -0.00341679
44 2 2.98096 8.26323 3.62607 -0.00860363 0.00830362 0.00292176
45 2 8.09707 12.7634 5.05694 -0.0341365 -0.0247803 0.0100418
46 1 9.66116 11.7087 7.46566 0.00329375 -0.0055667 -0.00255498
47 2 9.0113 12.0509 6.8459 -0.0133928 -0.0103818 0.0192578
48 2 10.0877 10.9456 7.06511 -0.0190446 0.00146123 0.00516094
49 1 9.37895 7.01894 9.33334 0.000940274 0.00518628 0.0110249
50 2 8.6508 6.56565 8.86381 -0.0189407 -0.000355037 0.00829096
51 2 8.97515 7.26758 10.1712 -0.00827789 -0.0194287 0.0374507
52 1 10.9804 11.6119 3.61248 0.00773212 0.00202882 -0.00224303
53 2 10.1712 11.8014 4.09701 -0.00766346 0.0149979 0.0152377
54 2 11.4984 10.9951 4.18966 0.00885854 -0.0147249 -0.0258548
55 1 5.99551 11.1476 3.37433 -0.00730872 0.00273417 0.00276396
56 2 5.89937 10.1692 3.19603 0.0182875 -0.0144734 -0.0367643
57 2 5.19385 11.5411 2.98038 0.0107651 -0.0323037 -0.018432
58 1 6.64045 9.30611 8.60606 0.00768829 0.00323867 0.00570609
59 2 4.76593 11.9963 8.45029 0.0105317 -0.000697459 -0.0360879
60 2 7.47065 9.69905 9.03746 0.00106088 -0.00947829 -0.00510994
61 1 7.07602 5.61059 8.58889 0.00444071 0.000330127 0.00210813
62 2 7.04417 5.35439 9.56657 -0.0146928 0.00136048 0.00347343
63 2 6.16022 5.94554 8.37122 -0.0400881 0.013031 0.00757074
64 1 4.88367 11.1324 8.04512 -0.00104933 0.00263635 0.00179119
65 2 4.99513 11.4018 6.43231 -0.0326906 0.000797625 -0.00584627
66 2 4.2184 5.31376 6.92598 0.00562941 -0.01263 0.00752104
67 1 10.8029 9.36206 6.99243 0.00161359 -0.00573763 0.00428288
68 2 11.6046 9.30206 6.37554 0.00376594 -0.0144683 0.00574975
69 2 11.1009 9.42062 7.90268 0.00894977 0.0200073 -0.00881038
70 1 11.1332 4.17374 7.40028 -0.00344017 0.00263358 -0.000825392
71 2 10.5297 13.2598 7.44823 -0.00636072 0.00868931 -0.0178222
72 2 11.2963 4.51214 8.34832 -0.0144323 0.0044185 0.00787897
73 1 9.03607 6.56706 6.42676 0.00549646 0.00271358 0.00126479
74 2 8.76639 5.92498 7.15145 0.00940253 0.00828818 -0.00717228
75 2 9.6695 7.20796 6.80966 -0.00559038 0.00920871 0.0103166
76 1 11.3928 5.25561 9.91557 -0.00324447 0.0111233 0.00272312
77 2 10.8159 6.02328 9.59605 -0.00565752 0.00980014 0.00228302
78 2 3.46706 6.80637 9.66551 0.00532858 -0.00428677 0.0154725
79 1 12.1388 9.6682 9.47227 -0.000761682 -0.000472026 0.00313438
80 2 12.7108 8.81289 9.65769 -0.00516979 0.00913214 -0.017405
81 2 5.60358 10.5077 8.45769 -0.00040229 -0.0302916 0.0228442
82 1 6.68614 5.03451 11.2762 -0.00917118 -0.00224862 -0.00553383
83 2 7.56069 4.86877 11.6062 -0.00462808 0.00688735 0.000701809
84 2 6.12991 5.05484 2.22222 0.00170948 0.0258125 -0.0176321
85 1 9.52091 4.29293 11.9075 -0.00480401 0.00111833 -1.4282e-05
86 2 9.93732 4.62263 2.83056 -0.0215269 -0.00122284 0.00767937
87 2 10.9308 4.71316 10.5643 -0.000513783 0.00758614 0.0196634
88 1 7.33099 13.1916 6.74441 0.000310029 -0.0035429 -0.00056958
89 2 7.03679 12.5817 7.37258 0.0290127 -0.0169836 -0.0113475
90 2 7.21657 4.20708 7.23981 -0.0309813 -0.01137 0.0109666
91 1 4.99742 7.67657 5.68568 0.00309924 -0.000502884 0.00140593
92 2 3.66534 8.91912 5.31056 -0.013152 -0.0248974 -0.00644413
93 2 4.55735 7.24798 6.38594 -0.0014086 -0.00830243 -0.00939802
94 1 4.53375 5.75163 7.77001 0.00484794 0.000209374 0.00114643
95 2 4.27102 5.08263 8.44426 0.0013544 -0.0143123 0.00405532
96 2 5.13262 6.99836 4.90955 0.00258846 0.0339422 0.0513397
ITEM: TIMESTEP
4
ITEM: NUMBER OF ATOMS
96
ITEM: BOX BOUNDS pp pp pp
2.9236100000000000e+00 1.2773600000000000e+01
4.0306300000000004e+00 1.3880599999999999e+01
2.1372399999999998e+00 1.1987200000000000e+01
ITEM: ATOMS id type x y z vx vy vz
1 1 8.44502 12.2745 4.30842 -0.0116873 -0.000288964 -0.00502114
2 2 7.65982 11.7658 3.96899 -0.00203724 -0.0204906 0.0280645
3 2 9.4082 13.1992 2.28456 0.00167791 0.00418494 -0.0218815
4 1 3.52925 11.8293 11.7626 0.00089377 0.000357859 -0.00570985
5 2 3.33199 11.0875 11.1759 0.0127498 0.0017287 -0.011802
6 2 12.5664 11.8573 2.54715 -0.000617199 -0.0292678 0.0131368
7 1 3.05002 7.48789 3.0617 0.00619665 0.00529675 -0.000137251
8 2 12.1355 6.9465 3.27018 0.00234092 -0.0409238 0.0258895
9 2 7.92194 7.81963 6.15597 0.0306213 0.0294433 0.0112211
10 1 7.37293 8.61928 6.16722 -0.00488713 -0.00728146 0.00520723
11 2 6.5331 8.31687 5.67416 0.0124573 0.029498 0.0054725
12 2 6.87554 9.01658 7.65404 0.00812008 -0.0337599 0.00789802
13 1 5.894 8.40629 2.47236 -0.00179208 -0.00036936 0.000577664
14 2 5.39451 8.36207 11.5262 -0.0121457 0.038258 0.0104018
15 2 5.40909 7.80869 3.0287 0.00230948 0.0210488 -0.0121929
16 1 8.98043 7.52669 2.52877 0.00362092 -0.00295557 0.00159846
17 2 9.191 6.59618 2.58951 0.00577448 0.00832743 -0.00366301
18 2 8.0113 7.53754 2.55934 0.0285165 0.0127998 0.00113479
19 1 3.67852 7.48567 10.2808 0.0076995 0.000659407 -0.00206998
20 2 3.23013 7.34968 11.1412 -0.00111707 0.00278468 0.0156427
21 2 11.468 9.6416 10.1833 -0.0204533 -0.0499126 -0.0185665
22 1 10.177 9.94333 11.4689 0.00251001 0.00350096 -0.00446305
23 2 10.4991 10.5378 2.38767 0.0112597 -0.0143911 -0.0084317
24 2 9.68596 9.24758 11.9689 -0.012496 0.00564574 0.00760971
25 1 2.99948 9.57815 5.16703 0.00425828 -0.00754841 -0.00580296
26 2 3.5644 10.4164 5.21365 0.0069817 0.00317014 0.0110686
27 2 4.44957 6.31583 3.21604 0.00745893 -0.00270994 0.0066704
28 1 11.19 5.82312 4.16492 -0.000954213 -0.00202191 -0.00292578
29 2 11.7286 5.50029 4.89999 0.0265534 -0.0263773 0.0110415
30 2 10.5506 6.467 4.64074 0.0197083 -0.0079426 -0.0195233
31 1 4.524 11.6862 5.52752 -0.00441657 -0.000965581 0.000759039
32 2 3.95992 13.3272 5.8018 -0.00305774 0.0285373 -0.0128879
33 2 5.20374 11.6711 4.81542 0.0076351 0.0320826 0.0151381
34 1 4.71823 13.3073 9.61349 -0.00397103 -0.00890932 -0.00447101
35 2 4.25549 12.9199 10.4202 0.000294634 -0.00285833 -0.0155451
36 2 5.51506 13.779 9.97761 0.000121484 0.0167522 -0.00434746
37 1 8.2622 10.9843 9.75485 -0.00291404 0.00634532 -0.00221991
38 2 8.94733 11.2175 9.10559 -0.00119273 0.0177347 -0.0101495
39 2 8.85859 10.5037 10.4313 -0.0187319 0.0132595 -0.0206758
40 1 3.48938 4.31067 5.70548 -3.57962e-05 0.000880648 -0.00202982
41 2 4.49035 5.13694 4.22331 0.0100048 -0.00240828 -0.00592004
42 2 12.4481 4.21625 6.13842 -0.00069217 -0.0146218 0.0167483
43 1 5.05945 5.77692 3.78879 -1.2388e-05 0.00233853 -0.00363412
44 2 2.97678 8.2681 3.62797 -0.00814169 0.0108276 0.00443418
45 2 8.07993 12.7513 5.06246 -0.03401 -0.0235891 0.0119176
46 1 9.66279 11.706 7.46446 0.0032161 -0.00513698 -0.00221991
47 2 9.00391 12.0458 6.85506 -0.0162509 -0.00983156 0.0172674
48 2 10.0788 10.9449 7.06685 -0.0162109 -0.00459605 0.0015555
49 1 9.37942 7.02153 9.33885 0.000887872 0.00517426 0.0110389
50 2 8.64131 6.56546 8.86789 -0.0184588 -0.000103827 0.00834624
51 2 8.97136 7.25797 10.1904 -0.0064518 -0.019168 0.0383305
52 1 10.9843 11.6128 3.61134 0.00809254 0.001837 -0.00229322
53 2 10.1665 11.8091 4.10512 -0.0103011 0.015363 0.0166622
54 2 11.5024 10.988 4.1766 0.00730105 -0.013404 -0.0262211
55 1 5.99184 11.1489 3.37569 -0.00734383 0.00252683 0.00270355
56 2 5.90869 10.1624 3.17758 0.0191701 -0.0120232 -0.0367014
57 2 5.19917 11.5248 2.9706 0.00995962 -0.0323325 -0.0208341
58 1 6.64429 9.30767 8.60897 0.00766401 0.00297529 0.00592857
59 2 4.77179 11.9965 8.4335 0.0128921 0.00185466 -0.0307784
60 2 7.47115 9.69481 9.03478 0.00131252 -0.00733333 -0.00544263
61 1 7.07825 5.61074 8.58999 0.00438431 0.000283124 0.00230874
62 2 7.03667 5.35542 9.56718 -0.0150687 0.00272438 -0.00114831
63 2 6.1405 5.95185 8.37492 -0.0373944 0.0117026 0.00729829
64 1 4.88311 11.1336 8.0459 -0.00117287 0.00233623 0.00134583
65 2 4.97826 11.4024 6.42861 -0.0343363 0.00134238 -0.00843504
66 2 4.22147 5.3076 6.92946 0.00669556 -0.0118828 0.00629707
67 1 10.8037 9.35915 6.99449 0.00158917 -0.00593819 0.00393727
68 2 11.6062 9.29527 6.37918 0.00237971 -0.0126292 0.00867865
69 2 11.1064 9.43069 7.89898 0.0130516 0.0202809 -0.00570977
70 1 11.1316 4.17511 7.3999 -0.00327886 0.00286168 -0.000688597
71 2 10.5266 13.2638 7.43957 -0.00615001 0.00746806 -0.0167479
72 2 11.2889 4.51391 8.35166 -0.0153816 0.00258061 0.0053174
73 1 9.03884 6.56836 6.42741 0.00559135 0.00253689 0.0012983
74 2 8.77173 5.93085 7.14699 0.0117622 0.0148241 -0.0103343
75 2 9.66606 7.21168 6.81524 -0.00808448 0.00571714 0.011979
76 1 11.3913 5.2612 9.91685 -0.00305305 0.0112095 0.0024097
77 2 10.8127 6.02728 9.59817 -0.00715053 0.00629212 0.00620954
78 2 3.46913 6.80311 9.6731 0.00295219 -0.00884087 0.0147918
79 1 12.1384 9.66786 9.47388 -0.000650456 -0.000890472 0.00327509
80 2 12.7076 8.81872 9.64862 -0.00695261 0.0137764 -0.0188428
81 2 5.60326 10.4935 8.46939 -0.00136885 -0.026175 0.023564