ITEM: TIMESTEP
0
ITEM: NUMBER OF ATOMS
96
ITEM: BOX BOUNDS pp pp pp
2.9236100000000000e+00 1.2773600000000000e+01
4.0306300000000004e+00 1.3880599999999999e+01
2.1372399999999998e+00 1.1987200000000000e+01
ITEM: ATOMS id type x y z vx vy vz
1 1 5.11608 13.8775 2.82812 -0.00123844 -0.000472247 -0.00112467
2 2 4.81574 13.0233 3.2409 -0.00236128 -0.00858939 -0.00198324
3 2 11.3663 13.3313 3.13099 0.00285482 0.00953485 0.00100881
4 1 12.6593 9.99653 11.8621 0.00333936 -0.00328024 -0.00144209
5 2 11.6936 10.18 11.7235 -0.00913223 -0.0108363 -0.00272005
6 2 12.644 9.13337 2.49589 -0.00677788 -0.012604 -0.00797278
7 1 12.7615 7.34837 3.02374 -4.09731e-05 -0.00245308 0.00295897
8 2 12.0814 6.65037 3.11761 -0.00922119 0.0111037 -0.0136331
9 2 8.94047 8.95627 7.35289 -0.00911286 0.014442 0.0206199
10 1 7.9968 9.15364 6.97118 0.000739093 -0.00607196 0.00127785
11 2 7.31872 7.91808 6.8321 -0.000365396 0.0130588 0.0237647
12 2 7.51148 9.56812 7.81463 -0.0149398 0.0173601 0.0095724
13 1 6.58763 9.60626 4.02658 0.000261007 0.00581694 -0.00546892
14 2 6.00222 9.04107 4.53732 -0.00175647 0.00484342 0.0153152
15 2 7.02278 9.06121 3.34109 0.0136907 0.000724837 0.00157636
16 1 9.69741 7.18204 10.8415 -0.00242078 0.00189772 0.00294933
17 2 10.1793 6.80167 11.6059 -0.00309057 0.0276938 0.00243264
18 2 8.82503 7.19083 11.1351 -0.0131018 -0.0103591 -0.0235447
19 1 4.57663 6.69049 10.902 0.00980891 0.00348889 0.00744455
20 2 3.88842 6.81074 11.6022 0.0105693 -0.00712508 -0.00532101
21 2 4.38186 8.33414 9.57026 -0.00141395 0.00329202 -0.0039684
22 1 10.0391 9.77272 11.1136 -0.00102601 -0.00380405 -0.000308437
23 2 9.51856 9.68969 11.9418 0.0259327 -0.0130183 -0.000612682
24 2 10.0153 8.89183 10.6725 0.00477619 0.00758113 -0.00240966
25 1 4.37132 7.88574 5.35782 -0.00265512 -0.000547687 0.00241126
26 2 3.86179 8.39567 5.97653 -0.0132564 -0.0193591 -3.61174e-05
27 2 3.6982 6.121 5.24506 -0.0133842 -0.000101907 -0.0111954
28 1 10.237 6.91809 3.82417 0.000265433 0.0056821 -0.0038896
29 2 9.44367 6.40166 4.09665 0.0159663 0.000291841 0.00702675
30 2 10.1983 7.86167 4.1485 0.00224598 0.00544864 -0.0294791
31 1 11.6871 10.9242 5.23159 -0.00157662 0.00256545 0.00359404
32 2 11.4762 11.9084 5.31935 0.0192202 -0.0290613 -0.0165271
33 2 12.6397 10.9265 5.04208 -0.00449156 0.0270006 0.00664348
34 1 7.45439 4.82317 10.7973 -0.00673374 0.00896322 -0.00215003
35 2 8.04091 4.06326 10.7682 -0.00821934 0.0394416 -0.0023367
36 2 6.7903 4.62046 11.4815 0.0221504 0.00441455 -0.00833269
37 1 8.5761 12.1757 10.0667 -0.000207114 -0.001395 0.00417223
38 2 9.06722 12.5663 9.30549 -0.0459784 -0.00376642 0.0156156
39 2 9.04172 11.3484 10.4324 -0.0144571 -0.0078979 0.0115854
40 1 10.7335 13.6664 4.76103 0.000954136 0.00701113 -0.000931001
41 2 11.519 4.33222 5.03001 -0.00461922 -0.024315 -0.0236415
42 2 10.0205 4.39769 4.77127 0.0142582 -0.00471545 -0.0106391
43 1 3.51908 5.15837 5.09795 -0.000668098 -0.00808102 -0.00274823
44 2 3.30859 7.421 3.92571 0.0187401 -0.0254702 -1.50382e-05
45 2 4.92917 4.78175 3.40259 0.012541 0.00884913 0.00044259
46 1 10.1163 13.026 8.0218 0.00191666 0.0058978 0.00855789
47 2 9.47725 12.8605 7.25293 0.00716771 0.00505974 -0.0102779
48 2 10.6821 12.2279 7.95482 0.0192964 0.0015113 0.0151061
49 1 10.851 5.84797 8.46682 -0.00382424 0.00257338 -0.0023124
50 2 10.6213 5.0057 7.98104 0.0180778 0.0298249 0.00532167
51 2 10.1783 5.89992 9.15735 0.00294218 -0.0159871 -0.00646867
52 1 9.4458 9.39831 4.05599 0.00202775 -0.00492798 -0.00179152
53 2 10.0313 9.99077 4.53919 -0.00836859 -0.0126055 -0.0319509
54 2 8.54808 9.50117 4.38497 0.00394532 0.0155966 -0.0503459
55 1 4.53536 11.2975 3.61312 -0.00169495 0.00296453 -0.00366455
56 2 5.3215 10.7151 3.52411 -0.00635953 0.0152485 -0.00869281
57 2 3.87785 10.9851 2.9094 0.0231239 -0.0110718 -0.0136085
58 1 6.83466 9.99197 9.35634 -0.00470983 -0.00175637 0.00536356
59 2 5.34676 10.7096 6.92552 -0.0152263 -0.0213473 -0.0161371
60 2 7.12896 10.9135 9.38583 0.0300737 0.00933092 0.00832073
61 1 6.10661 4.92739 8.35051 -0.00385346 0.00760866 -0.000643863
62 2 6.54719 4.95616 9.25318 0.000140161 -0.00807572 -0.0216204
63 2 5.16036 4.64892 8.54232 -0.021616 0.00150581 0.0099127
64 1 4.9514 11.3796 6.42956 0.00366344 -0.0039709 -0.00129888
65 2 5.20489 11.2506 5.49334 0.0242945 -0.00821932 0.0109688
66 2 4.13929 12.8237 7.31819 0.011772 -0.0448374 -0.0248631
67 1 11.6546 10.4555 7.90356 0.00583945 -0.00835315 -0.00371994
68 2 11.859 10.7112 6.96648 -0.0283386 0.00719819 -0.00577337
69 2 12.5502 10.2972 8.26222 0.0145938 0.0152387 0.0157951
70 1 8.14169 5.40694 4.55032 0.00350817 -0.0012693 0.00317089
71 2 8.07118 4.5926 4.99794 0.0151543 0.0128792 -0.00908795
72 2 7.67642 6.07361 5.10642 0.00966618 -0.0102975 -0.00793505
73 1 10.4488 8.27074 7.17007 -0.000681203 0.000221004 -0.00467332
74 2 10.423 7.50234 7.86769 0.00589932 -0.00422098 0.00909484
75 2 10.8007 9.10351 7.58967 -0.0124824 0.00525692 0.0128603
76 1 3.70496 13.8079 10.3187 0.00249341 -0.00737683 -0.00117157
77 2 12.6989 13.5617 10.768 -0.0383908 0.0205976 0.0266006
78 2 4.51097 5.70794 10.706 -0.0124717 0.0172892 0.0304399
79 1 4.2346 9.20668 9.27872 -0.00206862 0.000204144 -0.000695244
80 2 3.56802 9.5276 9.9415 -0.00474158 0.0137591 0.0123186
81 2 5.87925 10.0134 9.32812 0.0199221 0.0026045 0.00907527
82 1 7.0015 8.06154 11.407 -0.00469581 0.00213015 0.00355136
83 2 6.30112 7.43159 11.2507 0.0026489 -0.00891364 0.00689423
84 2 6.97185 8.79465 10.7453 0.00943025 -0.0254979 -0.00345169
85 1 11.1332 13.427 2.14099 -0.00738699 0.00290921 0.0032094
86 2 10.1991 13.5694 2.1502 0.02041 -0.0185246 0.000828544
87 2 4.35629 13.6659 10.9939 -0.00525553 -0.0296568 -0.0229189
88 1 7.67461 13.0896 6.38441 0.00854692 0.00287121 0.00158412
89 2 7.40513 12.217 6.12385 -0.0150071 -0.0149572 0.0112737
90 2 6.98775 13.4083 6.9666 -0.0264212 0.0200749 -0.00336866
91 1 6.5788 7.00949 6.47036 0.00184296 -0.00317499 -0.00281933
92 2 5.10906 7.42439 5.93885 0.00385789 -0.012175 -0.0139092
93 2 6.51903 6.39258 7.23997 -0.00536615 0.0242422 0.0323616
94 1 3.78397 13.6823 7.70171 -0.00155185 -0.00492088 -0.00529079
95 2 3.08223 13.6092 8.36869 0.0116547 0.00629512 0.00303158
96 2 3.6382 4.80009 5.97371 -0.0122903 -0.0100641 0.0138772
ITEM: TIMESTEP
1
ITEM: NUMBER OF ATOMS
96
ITEM: BOX BOUNDS pp pp pp
2.9236100000000000e+00 1.2773600000000000e+01
4.0306300000000004e+00 1.3880599999999999e+01
2.1372399999999998e+00 1.1987200000000000e+01
ITEM: ATOMS id type x y z vx vy vz
1 1 5.11551 13.8773 2.82751 -0.00105896 -0.000486401 -0.00131989
2 2 4.81463 13.0197 3.24026 -0.0020121 -0.00561024 -0.000616027
3 2 11.3671 13.3363 3.12997 0.000492878 0.0104762 -0.00483873
4 1 12.6609 9.99486 11.8614 0.00318432 -0.003428 -0.00145528
5 2 11.6891 10.1748 11.7218 -0.00862889 -0.00991974 -0.00393494
6 2 12.641 9.12727 2.49168 -0.00493657 -0.011649 -0.00889302
7 1 12.7615 7.34714 3.02525 -0.000121529 -0.00245637 0.00307468
8 2 12.0764 6.65635 3.11104 -0.0107774 0.0127296 -0.0125011
9 2 8.93626 8.9625 7.36236 -0.00764022 0.0103459 0.0171717
10 1 7.99716 9.15078 6.97195 0.000688558 -0.00535326 0.00184098
11 2 7.31614 7.92153 6.84305 -0.00985943 0.000847813 0.0197577
12 2 7.50417 9.57607 7.81849 -0.0141077 0.0141911 0.00548857
13 1 6.58779 9.60922 4.02384 0.000378299 0.00599636 -0.00547307
14 2 6.00143 9.04273 4.54472 -0.00102178 0.00209282 0.0139195
15 2 7.02876 9.06123 3.34199 0.0100525 -0.000573313 0.00221345
16 1 9.69634 7.18294 10.8429 -0.00186905 0.00170658 0.00273059
17 2 10.1777 6.81598 11.6072 -0.00346208 0.0293505 0.00299878
18 2 8.81612 7.18582 11.1239 -0.0221809 -0.0097594 -0.0213801
19 1 4.58155 6.69213 10.9057 0.0098658 0.00307624 0.00725693
20 2 3.89384 6.80767 11.5997 0.0107717 -0.00464575 -0.00434403
21 2 4.38146 8.33446 9.56882 -0.000260154 -0.00193781 -0.00173603
22 1 10.0386 9.77091 11.1135 -0.00108371 -0.00342364 -0.000296433
23 2 9.53196 9.68285 11.9414 0.0272855 -0.0143592 -0.000530621
24 2 10.0176 8.89511 10.6716 0.00446836 0.00518342 -0.00150653
25 1 4.37001 7.88544 5.35904 -0.00256397 -0.000651735 0.00244452
26 2 3.85478 8.38629 5.97676 -0.0147899 -0.0181121 0.00116527
27 2 3.69138 6.12038 5.23893 -0.013882 -0.00263676 -0.0132198
28 1 10.2372 6.9209 3.82218 0.00063705 0.00554244 -0.00407367
29 2 9.45166 6.40242 4.10035 0.0157666 0.00265125 0.00787486
30 2 10.1987 7.86375 4.13377 -0.000475661 0.00309474 -0.0291706
31 1 11.6863 10.9256 5.23342 -0.00151558 0.00291749 0.00370157
32 2 11.4861 11.8922 5.31057 0.0196337 -0.0341915 -0.0183699
33 2 12.6371 10.9402 5.04522 -0.00543272 0.0274282 0.0058682
34 1 7.45099 4.82769 10.7962 -0.00687353 0.00916702 -0.00216244
35 2 8.03671 4.08238 10.7669 -0.00787535 0.0362809 -0.0027733
36 2 6.80162 4.62252 11.4772 0.0223692 0.00368151 -0.00831689
37 1 8.57597 12.1749 10.0689 -0.000378893 -0.00175615 0.00456578
38 2 9.04492 12.5639 9.31336 -0.0425108 -0.00570383 0.0149796
39 2 9.03427 11.3461 10.437 -0.0151475 -0.00138912 0.00672104
40 1 10.7341 13.6698 4.76058 0.00140271 0.00649968 -0.000875759
41 2 11.5165 4.3204 5.01806 -0.00461357 -0.0222557 -0.0238093
42 2 10.0264 4.39682 4.7659 0.00904032 0.00174657 -0.0108122
43 1 3.51875 5.1544 5.09658 -0.000654511 -0.00780091 -0.00269518
44 2 3.31817 7.40828 3.92547 0.0193949 -0.0254153 -0.00105628
45 2 4.93486 4.78521 3.40333 0.010231 0.00474045 0.00239659
46 1 10.1172 13.0289 8.02597 0.00176716 0.00558167 0.00811324
47 2 9.48137 12.8638 7.24893 0.00960133 0.00799109 -0.00536456
48 2 10.6916 12.2291 7.96272 0.0183843 0.00360131 0.0164635
49 1 10.849 5.84923 8.46562 -0.00396864 0.00253665 -0.0024731
50 2 10.6306 5.02151 7.98447 0.0188708 0.0322011 0.0076522
51 2 10.1801 5.89207 9.1543 0.00393326 -0.0153402 -0.00536717
52 1 9.44683 9.39585 4.05502 0.00207364 -0.00494963 -0.00214003
53 2 10.0271 9.98472 4.52372 -0.00791654 -0.010888 -0.0293154
54 2 8.54994 9.50927 4.36048 0.00285501 0.0169297 -0.0473173
55 1 4.53447 11.299 3.61127 -0.00187394 0.00309615 -0.00373691
56 2 5.31874 10.7225 3.51973 -0.00415401 0.0142311 -0.00865553
57 2 3.88953 10.9796 2.90297 0.0231638 -0.0109086 -0.0122378
58 1 6.83241 9.99107 9.35898 -0.00422756 -0.00179642 0.00518653
59 2 5.33992 10.6977 6.91775 -0.0121933 -0.026113 -0.0147117
60 2 7.14439 10.9187 9.39043 0.031221 0.0108709 0.0100536
61 1 6.10467 4.9312 8.35026 -0.00395328 0.00760586 -0.000401845
62 2 6.54725 4.95209 9.24177 0.000259391 -0.00814143 -0.0235155
63 2 5.15005 4.64965 8.5466 -0.0189977 0.00154332 0.00701792
64 1 4.95318 11.3777 6.42887 0.00346695 -0.00359639 -0.00145566
65 2 5.21688 11.2462 5.49946 0.0236216 -0.00935541 0.0131399
66 2 4.14415 12.8019 7.30689 0.0071752 -0.0410213 -0.0197547
67 1 11.6576 10.4514 7.90174 0.00612527 -0.00796779 -0.00354059
68 2 11.8444 10.7147 6.9628 -0.0298574 0.0068067 -0.00879011
69 2 12.5573 10.3043 8.27058 0.013644 0.0131464 0.0170812
70 1 8.14342 5.40641 4.55185 0.00345024 -0.000844659 0.00289608
71 2 8.07842 4.59755 4.99464 0.0137745 0.00627707 -0.00376395
72 2 7.68098 6.06809 5.10271 0.00827054 -0.0113366 -0.00654202
73 1 10.4484 8.2707 7.16779 -0.00102344 -0.000360256 -0.00442083
74 2 10.4266 7.50165 7.87095 0.00849927 0.00165579 0.00359823
75 2 10.7949 9.10568 7.5966 -0.0107539 0.00317583 0.0146413
76 1 3.70609 13.8042 10.3181 0.00194497 -0.00744088 -0.00121018
77 2 12.6802 13.5724 10.7809 -0.0349297 0.0225286 0.024312
78 2 4.50491 5.71779 10.7211 -0.0114261 0.0212073 0.0295466
79 1 4.23348 9.20689 9.27838 -0.00244599 0.000648818 -0.000660467
80 2 3.56653 9.53421 9.94721 -0.00090502 0.0124436 0.0102271
81 2 5.88764 10.0146 9.33253 0.0128871 0.00233161 0.00853278
82 1 6.99923 8.06266 11.4088 -0.00438687 0.00231163 0.00378516
83 2 6.30159 7.42706 11.2535 -0.000725223 -0.00917942 0.00449359
84 2 6.97614 8.78107 10.7437 0.00770008 -0.028281 -0.00330044
85 1 11.1296 13.4284 2.14268 -0.00704825 0.00284584 0.00352641
86 2 10.2089 13.5602 2.15045 0.0175254 -0.0182792 0.000166172
87 2 4.35459 13.6509 10.9834 -0.00132285 -0.0302611 -0.0188168
88 1 7.67894 13.091 6.38518 0.00870039 0.00285668 0.00154501
89 2 7.39709 12.2095 6.12967 -0.0167545 -0.0143206 0.012213
90 2 6.97425 13.4184 6.96508 -0.0265759 0.0198197 -0.00341754
91 1 6.57985 7.00794 6.46905 0.0023484 -0.00304085 -0.00238525
92 2 5.1111 7.41864 5.93155 0.00432304 -0.0107816 -0.0151305
93 2 6.51629 6.40542 7.25536 -0.00574811 0.0270092 0.0287448
94 1 3.78323 13.6799 7.69898 -0.00138231 -0.00492845 -0.00566985
95 2 3.08892 13.6115 8.37018 0.015044 0.00272404 0.0030226
96 2 3.63212 4.79437 5.98117 -0.0120956 -0.0124175 0.0153502
ITEM: TIMESTEP
2
ITEM: NUMBER OF ATOMS
96
ITEM: BOX BOUNDS pp pp pp
2.9236100000000000e+00 1.2773600000000000e+01
4.0306300000000004e+00 1.3880599999999999e+01
2.1372399999999998e+00 1.1987200000000000e+01
ITEM: ATOMS id type x y z vx vy vz
1 1 5.11502 13.877 2.8268 -0.000894421 -0.000505257 -0.00149901
2 2 4.81373 13.0177 3.24028 -0.00155121 -0.00223847 0.000647022
3 2 11.3668 13.3418 3.12615 -0.00163089 0.011264 -0.00996801
4 1 12.6625 9.9931 11.8606 0.00295623 -0.00360177 -0.00147162
5 2 11.685 10.1701 11.7196 -0.00729544 -0.00896018 -0.00514737
6 2 12.6391 9.12172 2.487 -0.002831 -0.0104439 -0.00987476
7 1 12.7614 7.34591 3.02681 -0.000172491 -0.00243894 0.00318591
8 2 12.0706 6.6631 3.10511 -0.0124409 0.0141616 -0.0111046
9 2 8.93283 8.96662 7.37006 -0.0061227 0.00607518 0.0135824
10 1 7.99749 9.14829 6.97302 0.000597711 -0.00459943 0.00246788
11 2 7.30886 7.91893 6.85186 -0.0191424 -0.0111089 0.0152019
12 2 7.49737 9.58231 7.82012 -0.0128621 0.0106054 0.000737651
13 1 6.58801 9.61226 4.02111 0.000463766 0.00612858 -0.00545287
14 2 6.0012 9.04316 4.55124 0.00043615 -3.87019e-05 0.0118239
15 2 7.03283 9.06064 3.3433 0.00614981 -0.00175477 0.00312849
16 1 9.69554 7.18375 10.8442 -0.00139704 0.00154467 0.00247777
17 2 10.1758 6.83102 11.6089 -0.00382001 0.0306407 0.00429621
18 2 8.80285 7.18107 11.1137 -0.0300823 -0.00931656 -0.019315
19 1 4.5865 6.69357 10.9093 0.00992051 0.00272197 0.00707362
20 2 3.89919 6.80609 11.5979 0.0103252 -0.00119729 -0.00249895
21 2 4.3816 8.3322 9.56852 0.000741476 -0.00680584 0.000499223
22 1 10.038 9.7693 11.1133 -0.00109485 -0.00299922 -0.000323469
23 2 9.54585 9.67533 11.9413 0.0279195 -0.015716 0.000540035
24 2 10.0198 8.89701 10.671 0.00417908 0.00215816 -0.00104347
25 1 4.36876 7.88509 5.36026 -0.0024688 -0.00077248 0.00243479
26 2 3.847 8.37756 5.9777 -0.0162614 -0.0168711 0.00273482
27 2 3.68432 6.11836 5.23184 -0.0143231 -0.00560072 -0.0149403
28 1 10.2376 6.92363 3.8201 0.00104453 0.00534693 -0.00429887
29 2 9.45944 6.40431 4.10452 0.0150616 0.00479534 0.00889473
30 2 10.1978 7.86476 4.11933 -0.00306363 0.00129323 -0.0283491
31 1 11.6856 10.9271 5.23529 -0.0014103 0.00310849 0.00379314
32 2 11.4958 11.8742 5.30098 0.0187498 -0.0361534 -0.0197311
33 2 12.6343 10.9539 5.04795 -0.00565164 0.0271329 0.00496622
34 1 7.44752 4.83234 10.7951 -0.00699791 0.00948645 -0.00224203
35 2 8.03303 4.09954 10.7654 -0.00616099 0.0317412 -0.00328226
36 2 6.81267 4.62414 11.4732 0.0211166 0.00268592 -0.00691304
37 1 8.57572 12.1739 10.0713 -0.000664847 -0.00214763 0.00506248
38 2 9.02471 12.5606 9.32047 -0.0377231 -0.00697117 0.0126003
39 2 9.02657 11.347 10.4391 -0.0153354 0.0047008 0.00184213
40 1 10.7349 13.6729 4.76015 0.0017773 0.00586863 -0.000856253
41 2 11.5144 4.30996 5.0062 -0.00298181 -0.0188856 -0.0233104
42 2 10.0295 4.39944 4.76046 0.00320347 0.00896981 -0.0109548
43 1 3.51843 5.15057 5.09525 -0.000629523 -0.00754348 -0.00257313
44 2 3.32798 7.39558 3.92465 0.0196996 -0.0253843 -0.0022982
45 2 4.9394 4.78649 3.40499 0.00795605 0.000224198 0.00415999
46 1 10.1181 13.0316 8.02991 0.00163864 0.00521079 0.00763987
47 2 9.48685 12.8685 7.24757 0.0124374 0.010857 5.2815e-05
48 2 10.7005 12.2315 7.97128 0.0166507 0.00650103 0.017723
49 1 10.847 5.85051 8.46435 -0.00402675 0.00264958 -0.00257889
50 2 10.6402 5.0379 7.98869 0.0190288 0.0320566 0.00841494
51 2 10.1822 5.88458 9.15198 0.00425776 -0.0145663 -0.00356137
52 1 9.44787 9.39336 4.05385 0.00210856 -0.00504008 -0.00258659
53 2 10.0234 9.97988 4.50987 -0.00639759 -0.0078423 -0.0255982
54 2 8.55094 9.5181 4.33765 0.00060235 0.0185279 -0.0437844
55 1 4.53349 11.3006 3.60938 -0.0020571 0.00323802 -0.00381416
56 2 5.31735 10.7293 3.51545 -0.00103928 0.0129762 -0.00825947
57 2 3.90101 10.9742 2.89716 0.0223895 -0.0105272 -0.0111408
58 1 6.83043 9.99017 9.36153 -0.0036079 -0.00176112 0.00499783
59 2 5.33457 10.6835 6.91081 -0.00942285 -0.0307088 -0.0129958
60 2 7.16018 10.9244 9.39588 0.0314674 0.0109103 0.0117451
61 1 6.10266 4.935 8.35011 -0.00416195 0.00757659 -0.000233321
62 2 6.54745 4.94802 9.22966 0.000739185 -0.00811522 -0.0243023
63 2 5.14136 4.65046 8.54934 -0.0152944 0.00182253 0.00383668
64 1 4.95487 11.376 6.4281 0.00329063 -0.00324242 -0.00157694
65 2 5.22851 11.2412 5.50648 0.0228901 -0.0102865 0.0145117
66 2 4.14647 12.7827 7.29844 0.00176485 -0.0348758 -0.0136375
67 1 11.6607 10.4475 7.90002 0.00640568 -0.00758069 -0.00331756
68 2 11.8291 10.718 6.95769 -0.0306585 0.00616982 -0.0113596
69 2 12.5638 10.3103 8.2793 0.0120546 0.0112795 0.0172213
70 1 8.14514 5.4061 4.55322 0.0034348 -0.000412467 0.00254076
71 2 8.08495 4.59888 4.99418 0.012344 -0.00126582 0.00206977
72 2 7.68469 6.06227 5.09988 0.00632236 -0.011546 -0.00446813
73 1 10.4478 8.27038 7.16565 -0.00134606 -0.000921413 -0.00410864
74 2 10.4315 7.504 7.87129 0.0109148 0.00768742 -0.00235101
75 2 10.7899 9.10669 7.60431 -0.00921262 0.000712833 0.0159639
76 1 3.7069 13.8005 10.3175 0.00122156 -0.00752016 -0.00121208
77 2 12.664 13.5842 10.7923 -0.0289659 0.0248206 0.0209257
78 2 4.49954 5.72915 10.7355 -0.00975138 0.0232001 0.0276733
79 1 4.23215 9.20733 9.27806 -0.00284718 0.00109979 -0.000593096
80 2 3.56711 9.54004 9.95173 0.00342826 0.0106959 0.00768406
81 2 5.89214 10.0157 9.33665 0.00472416 0.00246079 0.00795527
82 1 6.99711 8.06385 11.4108 -0.00407843 0.00241301 0.00407704
83 2 6.30039 7.42241 11.2552 -0.00388878 -0.00936755 0.00217238
84 2 6.97955 8.76637 10.742 0.00592653 -0.0299383 -0.0040663
85 1 11.1262 13.4298 2.14452 -0.00655589 0.00277051 0.00378588
86 2 10.2166 13.5511 2.15037 0.0120606 -0.017714 -0.000505946
87 2 4.35497 13.6356 10.9751 0.00281043 -0.030985 -0.014216
88 1 7.68331 13.0925 6.38596 0.00868499 0.00277314 0.00157757
89 2 7.38838 12.2027 6.13606 -0.0177271 -0.0119966 0.0134818
90 2 6.96117 13.4281 6.96318 -0.0247923 0.0189797 -0.00481844
91 1 6.58115 7.00645 6.46797 0.00285578 -0.00290145 -0.00187299
92 2 5.11338 7.41361 5.92372 0.00471113 -0.00925078 -0.0160294
93 2 6.51328 6.41959 7.26871 -0.00640408 0.0294936 0.0243686
94 1 3.78259 13.6774 7.69604 -0.00113547 -0.00506739 -0.00612225
95 2 3.09727 13.6119 8.37171 0.0182099 -0.000961797 0.00326602
96 2 3.6261 4.78767 5.98906 -0.0119898 -0.0139455 0.0155716
ITEM: TIMESTEP
3
ITEM: NUMBER OF ATOMS
96
ITEM: BOX BOUNDS pp pp pp
2.9236100000000000e+00 1.2773600000000000e+01
4.0306300000000004e+00 1.3880599999999999e+01
2.1372399999999998e+00 1.1987200000000000e+01
ITEM: ATOMS id type x y z vx vy vz
1 1 5.11461 13.8768 2.82601 -0.000742044 -0.00052658 -0.00166771
2 2 4.81308 13.0174 3.24091 -0.00102575 0.00128686 0.00182604
3 2 11.3655 13.3476 3.12 -0.00338736 0.011863 -0.0139551
4 1 12.6639 9.99125 11.8599 0.00266572 -0.00379295 -0.00149526
5 2 11.6818 10.1658 11.7167 -0.00524903 -0.00798929 -0.00634324
6 2 12.6382 9.11683 2.48181 -0.000526427 -0.00908513 -0.0108599
7 1 12.7613 7.3447 3.02843 -0.000196883 -0.00240157 0.0032912
8 2 12.064 6.67051 3.09994 -0.0141909 0.0154031 -0.00945826
9 2 8.93014 8.96857 7.37594 -0.0047783 0.00179394 0.00987255
10 1 7.99776 9.14618 6.97442 0.000472673 -0.00383306 0.00314588
11 2 7.297 7.91043 6.85826 -0.0280483 -0.022547 0.0101559
12 2 7.49131 9.58667 7.81923 -0.0111846 0.00668811 -0.00451308
13 1 6.58826 9.61535 4.01839 0.000516106 0.00621508 -0.0054048
14 2 6.00187 9.04269 4.55654 0.00251695 -0.00154182 0.00912618
15 2 7.03491 9.05948 3.34512 0.002114 -0.00282682 0.00418648
16 1 9.69495 7.18448 10.8454 -0.00105084 0.00141026 0.00220746
17 2 10.1738 6.84662 11.6115 -0.00423215 0.0316103 0.00626328
18 2 8.78603 7.17651 11.1046 -0.0360386 -0.0089888 -0.0175291
19 1 4.59147 6.69485 10.9127 0.00997486 0.00244457 0.00689734
20 2 3.90417 6.80647 11.5972 0.00932627 0.00310126 9.03484e-05
21 2 4.3822 8.32766 9.56932 0.00151899 -0.0108632 0.00258876
22 1 10.0375 9.76791 11.1131 -0.00106466 -0.0025472 -0.000390333
23 2 9.55988 9.66713 11.9419 0.0279077 -0.0170506 0.00255475
24 2 10.0218 8.89727 10.6705 0.00392886 -0.00131456 -0.00094905
25 1 4.36755 7.88467 5.36147 -0.0023766 -0.00090126 0.00239167
26 2 3.83852 8.36942 5.97949 -0.0175212 -0.0157789 0.00451621
27 2 3.67706 6.11478 5.22399 -0.0146624 -0.00875052 -0.0162773
28 1 10.2383 6.92625 3.81789 0.0014838 0.00509267 -0.00456332
29 2 9.46673 6.40721 4.10925 0.0138263 0.00663281 0.0100765
30 2 10.1957 7.86504 4.10542 -0.00546026 0.000177891 -0.0270466
31 1 11.6849 10.9287 5.23721 -0.00126103 0.00310556 0.00386968
32 2 11.5048 11.8561 5.29083 0.0164804 -0.0344518 -0.0206289
33 2 12.6315 10.9673 5.05019 -0.00507019 0.0261186 0.00394123
34 1 7.44399 4.83717 10.794 -0.00710072 0.0098981 -0.00238426
35 2 8.03055 4.11412 10.7636 -0.00329368 0.026146 -0.00388282
36 2 6.82273 4.6252 11.4703 0.0185118 0.00145282 -0.00420816
37 1 8.5753 12.1728 10.0739 -0.00106109 -0.00253906 0.00563835
38 2 9.0072 12.5569 9.32596 -0.031864 -0.00756924 0.00862264
39 2 9.01893 11.3508 10.4388 -0.0148665 0.00991929 -0.0027747
40 1 10.7359 13.6757 4.75973 0.00204349 0.00517271 -0.000862816
41 2 11.5135 4.30152 4.99475 7.56287e-05 -0.0144167 -0.0222752
42 2 10.0296 4.40579 4.75495 -0.00251888 0.0163286 -0.0110877
43 1 3.51812 5.14686 5.09401 -0.000598335 -0.00732769 -0.00238629
44 2 3.33787 7.3829 3.92317 0.0196777 -0.02536 -0.00368338
45 2 4.94281 4.78544 3.40749 0.00571396 -0.00447553 0.00578059
46 1 10.1189 13.0341 8.03361 0.00153906 0.00480946 0.00716693
47 2 9.49381 12.8746 7.24899 0.0153884 0.0135305 0.00557084
48 2 10.7083 12.2356 7.98044 0.0142862 0.0099071 0.018814
49 1 10.845 5.85188 8.46304 -0.00400327 0.00291719 -0.00262033
50 2 10.6496 5.05357 7.99289 0.0185835 0.0293341 0.00754853
51 2 10.1844 5.8775 9.15074 0.00398645 -0.0136872 -0.00113849
52 1 9.44893 9.39081 4.05243 0.00212174 -0.00517991 -0.0031001
53 2 10.0207 9.97688 4.49813 -0.00401253 -0.00372875 -0.0210682
54 2 8.55055 9.52779 4.31669 -0.00244345 0.0203364 -0.0399771
55 1 4.53241 11.3023 3.60746 -0.00223172 0.00337913 -0.00389705
56 2 5.31771 10.7355 3.51147 0.00273314 0.0116398 -0.00749417
57 2 3.91192 10.969 2.89183 0.020864 -0.009949 -0.0103029
58 1 6.8288 9.98931 9.36398 -0.00289896 -0.00164858 0.00479971
59 2 5.3305 10.667 6.90476 -0.00716323 -0.0346851 -0.0112803
60 2 7.17586 10.9296 9.40217 0.0307428 0.00939953 0.0133746
61 1 6.10051 4.93877 8.35002 -0.00446094 0.00752841 -0.000147797
62 2 6.54799 4.94398 9.21746 0.00161749 -0.00803399 -0.0238868
63 2 5.13476 4.65147 8.55043 -0.0107852 0.00227754 0.000507709
64 1 4.95647 11.3745 6.42729 0.00314978 -0.0029399 -0.00164319
65 2 5.23977 11.2359 5.51397 0.0221224 -0.0110005 0.0150366
66 2 4.14591 12.767 7.29325 -0.00414498 -0.0270351 -0.00683735
67 1 11.664 10.4438 7.89842 0.00667584 -0.00719564 -0.00306559
68 2 11.8137 10.7209 6.95144 -0.0307558 0.00525947 -0.0132744
69 2 12.5694 10.3155 8.2878 0.00986948 0.00964161 0.0162227
70 1 8.14686 5.406 4.55439 0.00345326 -1.60021e-05 0.00214274
71 2 8.09077 4.59629 4.99671 0.0109246 -0.00895176 0.00797349
72 2 7.6873 6.05655 5.09824 0.00393666 -0.0110661 -0.00185941
73 1 10.447 8.26978 7.16368 -0.00164337 -0.00143707 -0.00376368
74 2 10.4375 7.50933 7.8686 0.0130781 0.0133435 -0.00832315
75 2 10.7857 9.10639 7.61257 -0.00777732 -0.00190553 0.0168261
76 1 3.70732 13.7967 10.3169 0.000379763 -0.00760828 -0.00116817
77 2 12.6513 13.5972 10.8018 -0.0209564 0.027257 0.0166774
78 2 4.49516 5.74099 10.7488 -0.00755168 0.0231045 0.0248824
79 1 4.23063 9.20799 9.27778 -0.00324625 0.00152152 -0.000500264
80 2 3.56996 9.54491 9.95489 0.00798516 0.00865217 0.00495026
81 2 5.89236 10.017 9.34048 -0.00381747 0.0029566 0.00738214
82 1 6.99515 8.06507 11.4129 -0.00378499 0.00242242 0.00442123
83 2 6.2977 7.4177 11.2557 -0.00665376 -0.00936475 3.18736e-05
84 2 6.98207 8.75113 10.7397 0.00418231 -0.030404 -0.00580472
85 1 11.123 13.4312 2.14647 -0.00594579 0.00269183 0.00396222
86 2 10.221 13.5424 2.14994 0.00444762 -0.0169345 -0.00120333
87 2 4.3574 13.62 10.9692 0.00672578 -0.0317219 -0.00949107
88 1 7.68763 13.0938 6.38676 0.00851102 0.00263103 0.00167165
89 2 7.37937 12.1975 6.14316 -0.017931 -0.00822563 0.0149695
90 2 6.94946 13.4373 6.96027 -0.0212406 0.0176592 -0.00734786
91 1 6.5827 7.00503 6.46717 0.00336612 -0.00274783 -0.00130592
92 2 5.11582 7.40939 5.91552 0.00485423 -0.00753507 -0.0166564
93 2 6.50988 6.43491 7.27973 -0.00734011 0.0314258 0.0195811
94 1 3.78209 13.6748 7.69286 -0.000827826 -0.00530153 -0.00663609
95 2 3.10713 13.6105 8.37345 0.0210286 -0.00471235 0.00388188
96 2 3.62013 4.78043 5.99674 -0.011953 -0.0146089 0.0145239
ITEM: TIMESTEP
4
ITEM: NUMBER OF ATOMS
96
ITEM: BOX BOUNDS pp pp pp
2.9236100000000000e+00 1.2773600000000000e+01
4.0306300000000004e+00 1.3880599999999999e+01
2.1372399999999998e+00 1.1987200000000000e+01
ITEM: ATOMS id type x y z vx vy vz
1 1 5.11428 13.8765 2.82513 -0.000597992 -0.000548096 -0.0018324
2 2 4.8127 13.019 3.24211 -0.000488168 0.00471441 0.00294708
3 2 11.3634 13.3536 3.1122 -0.00469842 0.0122598 -0.0164771
4 1 12.6652 9.98931 11.8591 0.00232772 -0.003992 -0.00153008
5 2 11.6797 10.1621 11.7132 -0.00266414 -0.00703129 -0.00751254
6 2 12.6385 9.11264 2.47614 0.00190477 -0.00768109 -0.011785
7 1 12.7612 7.34351 3.03011 -0.000198965 -0.00234636 0.00338754
8 2 12.0564 6.6785 3.09565 -0.0159981 0.0164672 -0.00758318
9 2 8.92805 8.96841 7.37993 -0.00378912 -0.002339 0.00607067
10 1 7.99796 9.14445 6.97617 0.000318689 -0.0030785 0.00386003
11 2 7.28081 7.89638 6.86201 -0.0363107 -0.0330183 0.00467174
12 2 7.48619 9.589 7.81561 -0.00907186 0.00253505 -0.0100905
13 1 6.58852 9.61847 4.0157 0.000536955 0.00626154 -0.00532723
14 2 6.00372 9.04162 4.56037 0.00506733 -0.00245692 0.00597513
15 2 7.03495 9.05781 3.34749 -0.00191707 -0.00381579 0.00522767
16 1 9.69449 7.18516 10.8464 -0.000860126 0.00129939 0.00193332
17 2 10.1716 6.86263 11.6152 -0.00476565 0.0323194 0.0087934
18 2 8.76681 7.17208 11.0962 -0.0395302 -0.00871555 -0.0161195
19 1 4.59647 6.69601 10.9162 0.0100281 0.00225444 0.00673172
20 2 3.90852 6.8092 11.5979 0.00793582 0.00807118 0.00322804
21 2 4.38312 8.32134 9.57111 0.00202178 -0.0137581 0.00440728
22 1 10.037 9.76675 11.1129 -0.00100182 -0.0020876 -0.000493431
23 2 9.57375 9.65828 11.9438 0.0273814 -0.0183207 0.00536595
24 2 10.0237 8.8957 10.67 0.00372788 -0.00500589 -0.00111387
25 1 4.36638 7.88419 5.36266 -0.00229439 -0.00102966 0.00232574
26 2 3.82948 8.36178 5.98221 -0.0184269 -0.014963 0.00634625
27 2 3.66966 6.10961 5.21556 -0.0148654 -0.0118 -0.0171871
28 1 10.2391 6.92873 3.81553 0.00194839 0.00477933 -0.00486295
29 2 9.47326 6.41094 4.1146 0.0120826 0.0081078 0.0114002
30 2 10.1924 7.86494 4.09228 -0.00762409 -0.00018035 -0.0253175
31 1 11.6843 10.9302 5.23916 -0.00107072 0.00289225 0.00393383
32 2 11.5123 11.8398 5.28035 0.0126512 -0.0287465 -0.0210941
33 2 12.6292 10.98 5.05189 -0.00349149 0.0242897 0.00277282
34 1 7.44042 4.84224 10.7928 -0.00717614 0.0103673 -0.00257661
35 2 8.02974 4.12569 10.7615 0.000365816 0.019947 -0.0045831
36 2 6.83118 4.62559 11.469 0.0148122 4.17426e-05 -0.000439697
37 1 8.57466 12.1714 10.0769 -0.00155719 -0.00289628 0.00626097
38 2 8.99285 12.553 9.32909 -0.0252524 -0.00759802 0.00336232
39 2 9.01171 11.3569 10.4363 -0.0136088 0.0138709 -0.00688908
40 1 10.7369 13.6781 4.75929 0.0021788 0.00447227 -0.000884323
41 2 11.5145 4.29555 4.98393 0.00417612 -0.00914837 -0.0208816
42 2 10.027 4.41577 4.74937 -0.00737975 0.0231859 -0.0112166
43 1 3.51783 5.14324 5.09287 -0.00056733 -0.00716889 -0.00214639
44 2 3.34766 7.37022 3.92097 0.0193775 -0.025364 -0.0051051
45 2 4.94511 4.78201 3.41077 0.0035028 -0.00911814 0.00731807
46 1 10.1196 13.0364 8.03708 0.00147436 0.00440615 0.00672527
47 2 9.50224 12.882 7.25314 0.0181569 0.0158905 0.010758
48 2 10.7148 12.2414 7.9901 0.0115302 0.0134733 0.0196761
49 1 10.843 5.85342 8.46173 -0.00391146 0.0033291 -0.00259375
50 2 10.6588 5.06724 7.99624 0.0176221 0.024208 0.00515447
51 2 10.1862 5.87089 9.15084 0.00325646 -0.0127274 0.00174655
52 1 9.45 9.38818 4.05075 0.00210421 -0.005341 -0.00364608
53 2 10.0194 9.97615 4.48881 -0.00107978 0.00107188 -0.0160618
54 2 8.54849 9.53844 4.29768 -0.00580702 0.0222743 -0.0361098
55 1 4.53125 11.304 3.60549 -0.00238431 0.00350725 -0.00398711
56 2 5.32008 10.741 3.50796 0.006841 0.0103964 -0.00636963
57 2 3.92188 10.9642 2.88686 0.0187036 -0.00919883 -0.00967615
58 1 6.82753 9.98853 9.36633 -0.0021552 -0.00146342 0.00459553
59 2 5.3274 10.6488 6.89953 -0.00561265 -0.0376318 -0.00982209
60 2 7.19092 10.9338 9.40926 0.0290317 0.00641028 0.0149207
61 1 6.0982 4.94252 8.34996 -0.00482677 0.00746996 -0.000148887
62 2 6.54907 4.93998 9.20578 0.00289574 -0.00793767 -0.0222619
63 2 5.13058 4.65274 8.54985 -0.00577979 0.00283698 -0.00281769
64 1 4.95802 11.3731 6.42646 0.00305703 -0.00271659 -0.00164116
65 2 5.25063 11.2302 5.52152 0.0213282 -0.0114883 0.0147372
66 2 4.14232 12.7556 7.2916 -0.0102353 -0.0181738 0.000302813
67 1 11.6674 10.4403 7.89695 0.0069284 -0.00681604 -0.0027994
68 2 11.7984 10.7233 6.94442 -0.0301879 0.00406778 -0.0144004
69 2 12.5737 10.32 8.29552 0.00719648 0.00821827 0.0141682
70 1 8.14859 5.40608 4.55536 0.00349485 0.000304278 0.00174388
71 2 8.09588 4.58993 5.00215 0.0095645 -0.0159554 0.0134999
72 2 7.68863 6.05121 5.09802 0.00127152 -0.0101079 0.00109054
73 1 10.4461 8.26894 7.16189 -0.00191093 -0.0018831 -0.00341393
74 2 10.4446 7.51734 7.86297 0.014938 0.0180821 -0.0138829
75 2 10.7822 9.10478 7.62114 -0.00636376 -0.00443522 0.0172355
76 1 3.70728 13.7929 10.3163 -0.000518858 -0.00770061 -0.00107265
77 2 12.643 13.6115 10.809 -0.011462 0.0296384 0.0118487
78 2 4.49199 5.75225 10.7604 -0.00496421 0.0209414 0.0213063
79 1 4.22891 9.20885 9.27756 -0.00361823 0.00188325 -0.000391394
80 2 3.5751 9.5487 9.95668 0.0124832 0.00646752 0.00229422