ITEM: TIMESTEP
0
ITEM: NUMBER OF ATOMS
96
ITEM: BOX BOUNDS pp pp pp
2.9236100000000000e+00 1.2773600000000000e+01
4.0306300000000004e+00 1.3880599999999999e+01
2.1372399999999998e+00 1.1987200000000000e+01
ITEM: ATOMS id type x y z vx vy vz
1 1 5.11461 13.8768 2.82601 -0.000742044 -0.00052658 -0.00166771
2 2 4.81308 13.0174 3.24091 -0.00102575 0.00128686 0.00182604
3 2 11.3655 13.3476 3.12 -0.00338736 0.011863 -0.0139551
4 1 12.6639 9.99125 11.8599 0.00266572 -0.00379295 -0.00149526
5 2 11.6818 10.1658 11.7167 -0.00524903 -0.00798929 -0.00634324
6 2 12.6382 9.11683 2.48181 -0.000526427 -0.00908513 -0.0108599
7 1 12.7613 7.3447 3.02843 -0.000196883 -0.00240157 0.0032912
8 2 12.064 6.67051 3.09994 -0.0141909 0.0154031 -0.00945826
9 2 8.93014 8.96857 7.37594 -0.0047783 0.00179394 0.00987255
10 1 7.99776 9.14618 6.97442 0.000472673 -0.00383306 0.00314588
11 2 7.297 7.91043 6.85826 -0.0280483 -0.022547 0.0101559
12 2 7.49131 9.58667 7.81923 -0.0111846 0.00668811 -0.00451308
13 1 6.58826 9.61535 4.01839 0.000516106 0.00621508 -0.0054048
14 2 6.00187 9.04269 4.55654 0.00251695 -0.00154182 0.00912618
15 2 7.03491 9.05948 3.34512 0.002114 -0.00282682 0.00418648
16 1 9.69495 7.18448 10.8454 -0.00105084 0.00141026 0.00220746
17 2 10.1738 6.84662 11.6115 -0.00423215 0.0316103 0.00626328
18 2 8.78603 7.17651 11.1046 -0.0360386 -0.0089888 -0.0175291
19 1 4.59147 6.69485 10.9127 0.00997486 0.00244457 0.00689734
20 2 3.90417 6.80647 11.5972 0.00932627 0.00310126 9.03484e-05
21 2 4.3822 8.32766 9.56932 0.00151899 -0.0108632 0.00258876
22 1 10.0375 9.76791 11.1131 -0.00106466 -0.0025472 -0.000390333
23 2 9.55988 9.66713 11.9419 0.0279077 -0.0170506 0.00255475
24 2 10.0218 8.89727 10.6705 0.00392886 -0.00131456 -0.00094905
25 1 4.36755 7.88467 5.36147 -0.0023766 -0.00090126 0.00239167
26 2 3.83852 8.36942 5.97949 -0.0175212 -0.0157789 0.00451621
27 2 3.67706 6.11478 5.22399 -0.0146624 -0.00875052 -0.0162773
28 1 10.2383 6.92625 3.81789 0.0014838 0.00509267 -0.00456332
29 2 9.46673 6.40721 4.10925 0.0138263 0.00663281 0.0100765
30 2 10.1957 7.86504 4.10542 -0.00546026 0.000177891 -0.0270466
31 1 11.6849 10.9287 5.23721 -0.00126103 0.00310556 0.00386968
32 2 11.5048 11.8561 5.29083 0.0164804 -0.0344518 -0.0206289
33 2 12.6315 10.9673 5.05019 -0.00507019 0.0261186 0.00394123
34 1 7.44399 4.83717 10.794 -0.00710072 0.0098981 -0.00238426
35 2 8.03055 4.11412 10.7636 -0.00329368 0.026146 -0.00388282
36 2 6.82273 4.6252 11.4703 0.0185118 0.00145282 -0.00420816
37 1 8.5753 12.1728 10.0739 -0.00106109 -0.00253906 0.00563835
38 2 9.0072 12.5569 9.32596 -0.031864 -0.00756924 0.00862264
39 2 9.01893 11.3508 10.4388 -0.0148665 0.00991929 -0.0027747
40 1 10.7359 13.6757 4.75973 0.00204349 0.00517271 -0.000862816
41 2 11.5135 4.30152 4.99475 7.56287e-05 -0.0144167 -0.0222752
42 2 10.0296 4.40579 4.75495 -0.00251888 0.0163286 -0.0110877
43 1 3.51812 5.14686 5.09401 -0.000598335 -0.00732769 -0.00238629
44 2 3.33787 7.3829 3.92317 0.0196777 -0.02536 -0.00368338
45 2 4.94281 4.78544 3.40749 0.00571396 -0.00447553 0.00578059
46 1 10.1189 13.0341 8.03361 0.00153906 0.00480946 0.00716693
47 2 9.49381 12.8746 7.24899 0.0153884 0.0135305 0.00557084
48 2 10.7083 12.2356 7.98044 0.0142862 0.0099071 0.018814
49 1 10.845 5.85188 8.46304 -0.00400327 0.00291719 -0.00262033
50 2 10.6496 5.05357 7.99289 0.0185835 0.0293341 0.00754853
51 2 10.1844 5.8775 9.15074 0.00398645 -0.0136872 -0.00113849
52 1 9.44893 9.39081 4.05243 0.00212174 -0.00517991 -0.0031001
53 2 10.0207 9.97688 4.49813 -0.00401253 -0.00372875 -0.0210682
54 2 8.55055 9.52779 4.31669 -0.00244345 0.0203364 -0.0399771
55 1 4.53241 11.3023 3.60746 -0.00223172 0.00337913 -0.00389705
56 2 5.31771 10.7355 3.51147 0.00273314 0.0116398 -0.00749417
57 2 3.91192 10.969 2.89183 0.020864 -0.009949 -0.0103029
58 1 6.8288 9.98931 9.36398 -0.00289896 -0.00164858 0.00479971
59 2 5.3305 10.667 6.90476 -0.00716323 -0.0346851 -0.0112803
60 2 7.17586 10.9296 9.40217 0.0307428 0.00939953 0.0133746
61 1 6.10051 4.93877 8.35002 -0.00446094 0.00752841 -0.000147797
62 2 6.54799 4.94398 9.21746 0.00161749 -0.00803399 -0.0238868
63 2 5.13476 4.65147 8.55043 -0.0107852 0.00227754 0.000507709
64 1 4.95647 11.3745 6.42729 0.00314978 -0.0029399 -0.00164319
65 2 5.23977 11.2359 5.51397 0.0221224 -0.0110005 0.0150366
66 2 4.14591 12.767 7.29325 -0.00414498 -0.0270351 -0.00683735
67 1 11.664 10.4438 7.89842 0.00667584 -0.00719564 -0.00306559
68 2 11.8137 10.7209 6.95144 -0.0307558 0.00525947 -0.0132744
69 2 12.5694 10.3155 8.2878 0.00986948 0.00964161 0.0162227
70 1 8.14686 5.406 4.55439 0.00345326 -1.60021e-05 0.00214274
71 2 8.09077 4.59629 4.99671 0.0109246 -0.00895176 0.00797349
72 2 7.6873 6.05655 5.09824 0.00393666 -0.0110661 -0.00185941
73 1 10.447 8.26978 7.16368 -0.00164337 -0.00143707 -0.00376368
74 2 10.4375 7.50933 7.8686 0.0130781 0.0133435 -0.00832315
75 2 10.7857 9.10639 7.61257 -0.00777732 -0.00190553 0.0168261
76 1 3.70732 13.7967 10.3169 0.000379763 -0.00760828 -0.00116817
77 2 12.6513 13.5972 10.8018 -0.0209564 0.027257 0.0166774
78 2 4.49516 5.74099 10.7488 -0.00755168 0.0231045 0.0248824
79 1 4.23063 9.20799 9.27778 -0.00324625 0.00152152 -0.000500264
80 2 3.56996 9.54491 9.95489 0.00798516 0.00865217 0.00495026
81 2 5.89236 10.017 9.34048 -0.00381747 0.0029566 0.00738214
82 1 6.99515 8.06507 11.4129 -0.00378499 0.00242242 0.00442123
83 2 6.2977 7.4177 11.2557 -0.00665376 -0.00936475 3.18736e-05
84 2 6.98207 8.75113 10.7397 0.00418231 -0.030404 -0.00580472
85 1 11.123 13.4312 2.14647 -0.00594579 0.00269183 0.00396222
86 2 10.221 13.5424 2.14994 0.00444762 -0.0169345 -0.00120333
87 2 4.3574 13.62 10.9692 0.00672578 -0.0317219 -0.00949107
88 1 7.68763 13.0938 6.38676 0.00851102 0.00263103 0.00167165
89 2 7.37937 12.1975 6.14316 -0.017931 -0.00822563 0.0149695
90 2 6.94946 13.4373 6.96027 -0.0212406 0.0176592 -0.00734786
91 1 6.5827 7.00503 6.46717 0.00336612 -0.00274783 -0.00130592
92 2 5.11582 7.40939 5.91552 0.00485423 -0.00753507 -0.0166564
93 2 6.50988 6.43491 7.27973 -0.00734011 0.0314258 0.0195811
94 1 3.78209 13.6748 7.69286 -0.000827826 -0.00530153 -0.00663609
95 2 3.10713 13.6105 8.37345 0.0210286 -0.00471235 0.00388188
96 2 3.62013 4.78043 5.99674 -0.011953 -0.0146089 0.0145239
ITEM: TIMESTEP
1
ITEM: NUMBER OF ATOMS
96
ITEM: BOX BOUNDS pp pp pp
2.9236100000000000e+00 1.2773600000000000e+01
4.0306300000000004e+00 1.3880599999999999e+01
2.1372399999999998e+00 1.1987200000000000e+01
ITEM: ATOMS id type x y z vx vy vz
1 1 5.11428 13.8765 2.82513 -0.000598106 -0.000548843 -0.0018323
2 2 4.8127 13.0189 3.24211 -0.000485401 0.00472253 0.00294329
3 2 11.3634 13.3537 3.11219 -0.00469893 0.0122597 -0.0164763
4 1 12.6652 9.9893 11.8591 0.00232816 -0.00399206 -0.00153
5 2 11.6798 10.162 11.7132 -0.00267158 -0.00702742 -0.00751445
6 2 12.6385 9.11264 2.47614 0.00190657 -0.00768304 -0.0117839
7 1 12.7612 7.34351 3.0301 -0.000198918 -0.00234639 0.00338751
8 2 12.0565 6.6785 3.09565 -0.015999 0.0164665 -0.00758378
9 2 8.92805 8.96841 7.37994 -0.0037886 -0.00233909 0.00607099
10 1 7.99796 9.14446 6.97617 0.000318598 -0.00307856 0.00386
11 2 7.28081 7.89639 6.86202 -0.0363108 -0.0330184 0.00467126
12 2 7.48619 9.589 7.81561 -0.00907206 0.00253516 -0.0100904
13 1 6.58853 9.61847 4.0157 0.000536933 0.00626156 -0.00532729
14 2 6.00372 9.04162 4.56036 0.00506724 -0.00245698 0.00597527
15 2 7.03495 9.05781 3.34749 -0.00191734 -0.00381532 0.00522825
16 1 9.69449 7.18515 10.8464 -0.000860351 0.0012993 0.00193371
17 2 10.1716 6.86263 11.6152 -0.00476416 0.0323203 0.00879045
18 2 8.76681 7.17209 11.0962 -0.0395278 -0.00871462 -0.0161228
19 1 4.59647 6.69601 10.9161 0.0100277 0.00225451 0.00673216
20 2 3.90852 6.80919 11.598 0.00794108 0.00807133 0.00322305
21 2 4.38312 8.32134 9.57111 0.00202182 -0.0137587 0.00440741
22 1 10.037 9.76675 11.1129 -0.00100199 -0.00208772 -0.000493344
23 2 9.57376 9.65828 11.9438 0.0273826 -0.0183201 0.00536407
24 2 10.0237 8.8957 10.67 0.00372791 -0.00500518 -0.00111351
25 1 4.36638 7.88419 5.36265 -0.00229441 -0.00102963 0.00232577
26 2 3.82948 8.36178 5.98221 -0.0184269 -0.0149632 0.00634592
27 2 3.66966 6.10961 5.21557 -0.0148654 -0.0117995 -0.0171872
28 1 10.2392 6.92873 3.81554 0.00194816 0.00477923 -0.00486285
29 2 9.47327 6.41094 4.1146 0.0120854 0.00810961 0.0113991
30 2 10.1924 7.86494 4.09228 -0.00762445 -0.000180199 -0.0253177
31 1 11.6843 10.9302 5.23916 -0.00107053 0.00289252 0.00393384
32 2 11.5123 11.8398 5.28035 0.0126545 -0.0287523 -0.021095
33 2 12.6292 10.98 5.05189 -0.00349799 0.0242918 0.00277405
34 1 7.44042 4.84223 10.7928 -0.00717635 0.0103672 -0.00257642
35 2 8.02975 4.12569 10.7615 0.000364409 0.0199471 -0.0045823
36 2 6.83118 4.62559 11.469 0.0148166 4.18584e-05 -0.000443699
37 1 8.57466 12.1714 10.0769 -0.0015572 -0.00289656 0.00626124
38 2 8.99285 12.553 9.32909 -0.0252508 -0.00759643 0.00335947
39 2 9.0117 11.3569 10.4363 -0.0136103 0.0138736 -0.00688978
40 1 10.737 13.6781 4.75929 0.00217816 0.00447215 -0.000884447
41 2 11.5145 4.29555 4.98393 0.00417985 -0.00914365 -0.0208799
42 2 10.027 4.41577 4.74937 -0.00737327 0.0231825 -0.011216
43 1 3.51783 5.14324 5.09287 -0.000567331 -0.00716889 -0.00214642
44 2 3.34767 7.37022 3.92097 0.0193783 -0.0253636 -0.00510463
45 2 4.94511 4.78202 3.41077 0.00350188 -0.00911583 0.00732069
46 1 10.1196 13.0364 8.03708 0.00147402 0.00440632 0.00672511
47 2 9.50224 12.882 7.25314 0.0181594 0.0158915 0.0107604
48 2 10.7148 12.2414 7.99009 0.0115333 0.0134694 0.019676
49 1 10.843 5.85342 8.46173 -0.00391122 0.00332908 -0.00259402
50 2 10.6587 5.06724 7.99624 0.0176227 0.0242079 0.00515357
51 2 10.1863 5.87089 9.15085 0.00325225 -0.0127266 0.00175162
52 1 9.44999 9.38818 4.05075 0.0021044 -0.00534096 -0.00364603
53 2 10.0194 9.97616 4.48881 -0.00108161 0.00107024 -0.0160631
54 2 8.54849 9.53843 4.29767 -0.00580769 0.0222746 -0.0361095
55 1 4.53125 11.304 3.60549 -0.00238424 0.00350687 -0.00398746
56 2 5.32008 10.741 3.50796 0.00683944 0.0103997 -0.00636739
57 2 3.92188 10.9642 2.88686 0.0187045 -0.00919533 -0.00967272
58 1 6.82754 9.98852 9.36633 -0.00215523 -0.00146376 0.0045955
59 2 5.3274 10.6488 6.89953 -0.00561682 -0.0376243 -0.00982609
60 2 7.19093 10.9337 9.40926 0.0290319 0.00641514 0.0149208
61 1 6.09819 4.94252 8.34996 -0.00482672 0.00746998 -0.000148864
62 2 6.54907 4.93999 9.20577 0.00289536 -0.0079377 -0.0222621
63 2 5.13058 4.65274 8.54984 -0.00578029 0.0028368 -0.00281758
64 1 4.95802 11.3731 6.42646 0.00305735 -0.00271713 -0.00164098
65 2 5.25064 11.2302 5.52151 0.0213273 -0.0114871 0.0147385
66 2 4.14232 12.7556 7.2916 -0.0102362 -0.0181695 0.00030399
67 1 11.6674 10.4403 7.89695 0.00692846 -0.00681595 -0.00279944
68 2 11.7984 10.7233 6.94442 -0.0301881 0.00406733 -0.0143995
69 2 12.5737 10.3199 8.29552 0.00719607 0.00821832 0.0141678
70 1 8.14859 5.40608 4.55536 0.0034949 0.000304266 0.00174388
71 2 8.09588 4.58993 5.00215 0.00956439 -0.0159547 0.0134996
72 2 7.68863 6.05121 5.09802 0.00127156 -0.0101081 0.00109054
73 1 10.4461 8.26894 7.16189 -0.00191092 -0.00188314 -0.00341391
74 2 10.4445 7.51733 7.86297 0.0149381 0.0180826 -0.0138833
75 2 10.7822 9.10478 7.62114 -0.00636416 -0.00443616 0.0172353
76 1 3.70729 13.7929 10.3163 -0.000518703 -0.00770069 -0.00107264
77 2 12.643 13.6114 10.809 -0.0114654 0.0296392 0.0118491
78 2 4.49199 5.75225 10.7604 -0.0049637 0.0209408 0.0213051
79 1 4.22891 9.20885 9.27756 -0.00361822 0.00188327 -0.000391414
80 2 3.5751 9.5487 9.95667 0.0124832 0.00646756 0.00229424
81 2 5.88832 10.0186 9.34403 -0.0119488 0.00376421 0.00685086
82 1 6.99333 8.06627 11.4152 -0.00351952 0.00233615 0.00480638
83 2 6.29374 7.41305 11.2552 -0.00886826 -0.00907729 -0.00183521
84 2 6.98373 8.73596 10.7362 0.0025375 -0.0297167 -0.00847568
85 1 11.1202 13.4325 2.14848 -0.00526899 0.00261889 0.00403563
86 2 10.2211 13.5341 2.14916 -0.00459263 -0.016071 -0.00192301
87 2 4.36169 13.604 10.9656 0.010029 -0.032348 -0.00501176
88 1 7.69182 13.0951 6.38763 0.0081996 0.00244512 0.00181346
89 2 7.37045 12.1945 6.15104 -0.0174248 -0.00336319 0.0165445
90 2 6.93993 13.4457 6.95584 -0.0162138 0.0160073 -0.010712
91 1 6.58451 7.0037 6.46666 0.00387889 -0.0025753 -0.000709934
92 2 5.11824 7.40608 5.90707 0.00460025 -0.00559832 -0.0170699
93 2 6.50594 6.45101 7.2883 -0.00863215 0.0324385 0.0147822
94 1 3.78176 13.6721 7.68941 -0.000478554 -0.00559362 -0.00719677
95 2 3.1183 13.6072 8.3756 0.0234114 -0.00847725 0.00495988
96 2 3.61416 4.77307 6.00358 -0.0119553 -0.0144319 0.0123043
ITEM: TIMESTEP
2
ITEM: NUMBER OF ATOMS
96
ITEM: BOX BOUNDS pp pp pp
2.9236100000000000e+00 1.2773600000000000e+01
4.0306300000000004e+00 1.3880599999999999e+01
2.1372399999999998e+00 1.1987200000000000e+01
ITEM: ATOMS id type x y z vx vy vz
1 1 5.11401 13.8763 2.82418 -0.000458315 -0.000569007 -0.00199878
2 2 4.81259 13.0221 3.24385 1.57379e-05 0.00781114 0.00402567
3 2 11.3608 13.3599 3.10352 -0.00554613 0.012462 -0.0173388
4 1 12.6662 9.98726 11.8584 0.00196105 -0.00418915 -0.00157926
5 2 11.6791 10.1588 11.7092 0.000230687 -0.00609753 -0.00865216
6 2 12.6401 9.10915 2.47003 0.00438922 -0.00634672 -0.0125851
7 1 12.7611 7.34235 3.03182 -0.00018343 -0.00227674 0.00347049
8 2 12.048 6.68698 3.09236 -0.0178255 0.0173741 -0.00550754
9 2 8.92635 8.96623 7.38201 -0.00327146 -0.00618004 0.00222648
10 1 7.99808 9.1431 6.97828 0.000140142 -0.00236079 0.0045905
11 2 7.26069 7.87741 6.86293 -0.0435791 -0.0419538 -0.00116031
12 2 7.48224 9.58921 7.80914 -0.0065581 -0.00173262 -0.0157864
13 1 6.5888 9.62161 4.01306 0.000530295 0.00627656 -0.00522063
14 2 6.00694 9.04023 4.56252 0.00789738 -0.00286146 0.00255828
15 2 7.03299 9.05566 3.35035 -0.00580961 -0.00475809 0.00608116
16 1 9.69409 7.18578 10.8473 -0.000836262 0.00120672 0.0016666
17 2 10.169 6.87894 11.6203 -0.0054821 0.032838 0.0117358
18 2 8.7465 7.1678 11.0885 -0.0403169 -0.00842953 -0.0151125
19 1 4.6015 6.6971 10.9194 0.0100753 0.00215214 0.00658228
20 2 3.91211 6.81454 11.6004 0.00638151 0.0134802 0.00664599
21 2 4.38422 8.3139 9.57373 0.00222672 -0.0152706 0.00586219
22 1 10.0365 9.76582 11.1126 -0.000917921 -0.00164307 -0.000624457
23 2 9.58726 9.64881 11.9473 0.0265182 -0.0194763 0.00872863
24 2 10.0255 8.89226 10.6694 0.0035757 -0.00865731 -0.00140303
25 1 4.36526 7.88364 5.3638 -0.00222901 -0.00115002 0.00224703
26 2 3.82009 8.35446 5.98584 -0.0188602 -0.0145219 0.0080725
27 2 3.66219 6.10298 5.2068 -0.0149026 -0.0144694 -0.0176367
28 1 10.2402 6.93103 3.81303 0.00242617 0.00441698 -0.00519031
29 2 9.47882 6.41532 4.12065 0.009907 0.00920509 0.0128286
30 2 10.1881 7.86486 4.0801 -0.00952548 0.000215601 -0.0232351
31 1 11.6838 10.9316 5.24114 -0.000844281 0.00248167 0.00398957
32 2 11.5175 11.8273 5.26973 0.00696083 -0.0189987 -0.0211624
33 2 12.628 10.9916 5.05296 -0.000570886 0.0214074 0.00141405
34 1 7.43681 4.84754 10.7914 -0.00721997 0.0108506 -0.00279838
35 2 8.03091 4.13407 10.759 0.00432923 0.0136891 -0.00536806
36 2 6.83755 4.62524 11.4699 0.0104199 -0.00145552 0.00399456
37 1 8.57374 12.1699 10.0802 -0.00213682 -0.00318492 0.00689187
38 2 8.98195 12.5493 9.32932 -0.018252 -0.00724033 -0.0027185
39 2 9.00532 11.3647 10.4319 -0.0114687 0.0162525 -0.0103137
40 1 10.7381 13.6802 4.75885 0.00217631 0.0038249 -0.000909615
41 2 11.5177 4.29238 4.97387 0.00881172 -0.00343108 -0.0193268
42 2 10.0222 4.42897 4.74373 -0.0107296 0.0289709 -0.011334
43 1 3.51755 5.13969 5.09186 -0.000543053 -0.00708048 -0.00186976
44 2 3.35725 7.35754 3.91807 0.0188559 -0.025386 -0.00646874
45 2 4.94631 4.77632 3.41481 0.00132247 -0.0134566 0.00883718
46 1 10.1204 13.0385 8.04034 0.00144787 0.00403134 0.00634532
47 2 9.51197 12.8905 7.25975 0.0204592 0.0178316 0.0151866
48 2 10.7198 12.2491 8.00012 0.00865373 0.0168347 0.0202619
49 1 10.8411 5.85521 8.46045 -0.00377146 0.0038579 -0.00250319
50 2 10.6672 5.07778 7.99804 0.0162767 0.0171126 0.00151951
51 2 10.1877 5.86477 9.15249 0.00225553 -0.0117177 0.00488139
52 1 9.45103 9.38547 4.04878 0.00205268 -0.0054965 -0.00419072
53 2 10.0196 9.97795 4.48207 0.00200042 0.00609224 -0.0109528
54 2 8.54474 9.55006 4.28058 -0.00896871 0.0242386 -0.0323618
55 1 4.53003 11.3058 3.60347 -0.0025018 0.00360947 -0.00408674
56 2 5.32455 10.7459 3.5051 0.010919 0.00942497 -0.00491329
57 2 3.93062 10.9598 2.88216 0.0160683 -0.00829729 -0.00917977
58 1 6.82664 9.98785 9.36858 -0.00143158 -0.00121643 0.00438962
59 2 5.32488 10.6294 6.89493 -0.00490681 -0.0392137 -0.00881975
60 2 7.20489 10.936 9.41709 0.0263797 0.00213265 0.0163649
61 1 6.09568 4.94624 8.34987 -0.00523173 0.0074101 -0.000233349
62 2 6.55089 4.93604 9.1952 0.00452807 -0.00786454 -0.0195195
63 2 5.12898 4.65431 8.54761 -0.000604094 0.00342541 -0.0059868
64 1 4.95953 11.3718 6.42565 0.00302188 -0.00259526 -0.001565
65 2 5.2611 11.2244 5.52871 0.0205011 -0.0117397 0.0136998
66 2 4.13567 12.7488 7.29355 -0.0161924 -0.00897273 0.00743661
67 1 11.6709 10.437 7.89562 0.00715398 -0.00644464 -0.00253236
68 2 11.7835 10.725 6.93704 -0.0290111 0.00260794 -0.0146844
69 2 12.5766 10.3237 8.30197 0.00420061 0.00698112 0.0112043
70 1 8.15035 5.4063 4.55613 0.00354781 0.000516412 0.00138535
71 2 8.10033 4.58034 5.01021 0.00829728 -0.0215415 0.0182462
72 2 7.68857 6.04644 5.09933 -0.00148513 -0.00892318 0.00415455
73 1 10.4451 8.2679 7.16027 -0.00214542 -0.00223747 -0.00308638
74 2 10.4524 7.52741 7.85472 0.0164648 0.0213868 -0.0186199
75 2 10.7793 9.10195 7.62981 -0.0048994 -0.00664682 0.0172034
76 1 3.7068 13.789 10.3158 -0.00141226 -0.00779392 -0.000924313
77 2 12.6398 13.6268 10.8136 -0.00112525 0.0317959 0.00675264
78 2 4.4902 5.76193 10.7701 -0.0021458 0.0169379 0.0171402
79 1 4.22701 9.20987 9.27739 -0.00394047 0.00216142 -0.000278119
80 2 3.58244 9.55138 9.95718 0.0166443 0.00431021 -1.93579e-05
81 2 5.88041 10.0208 9.34733 -0.0189366 0.00480677 0.00639349
82 1 6.99163 8.06741 11.4177 -0.00329294 0.00215996 0.00521442
83 2 6.28883 7.40862 11.2539 -0.0104236 -0.00843944 -0.003347
84 2 6.98461 8.72141 10.7312 0.00105607 -0.0280303 -0.0119209
85 1 11.1177 13.4338 2.15051 -0.00458754 0.00255997 0.00399401
86 2 10.2164 13.5263 2.14802 -0.0141076 -0.0152578 -0.00264324
87 2 4.36743 13.5877 10.9642 0.0123939 -0.0327383 -0.0010988
88 1 7.69583 13.0962 6.38857 0.00777967 0.00223194 0.00198692
89 2 7.36195 12.1941 6.1597 -0.0163084 0.0021778 0.0180746
90 2 6.93325 13.4533 6.94956 -0.0100909 0.0141993 -0.014582
91 1 6.58658 7.00245 6.46646 0.0043886 -0.00238763 -0.000113216
92 2 5.12042 7.40379 5.89845 0.00383079 -0.00342447 -0.017327
93 2 6.50125 6.46735 7.29451 -0.0103767 0.032176 0.0103702
94 1 3.78161 13.6692 7.68566 -0.000109231 -0.00590611 -0.00778684
95 2 3.13054 13.602 8.37841 0.0253096 -0.0122003 0.00655231
96 2 3.60817 4.766 6.00904 -0.011962 -0.0134919 0.00910352
ITEM: TIMESTEP
3
ITEM: NUMBER OF ATOMS
96
ITEM: BOX BOUNDS pp pp pp
2.9236100000000000e+00 1.2773600000000000e+01
4.0306300000000004e+00 1.3880599999999999e+01
2.1372399999999998e+00 1.1987200000000000e+01
ITEM: ATOMS id type x y z vx vy vz
1 1 5.11382 13.876 2.82314 -0.000318903 -0.000584906 -0.00217125
2 2 4.81272 13.0267 3.24613 0.000434218 0.010322 0.00508422
3 2 11.3579 13.3661 3.09485 -0.00597078 0.0124959 -0.0164975
4 1 12.6671 9.98511 11.8576 0.00158395 -0.00437456 -0.0016456
5 2 11.68 10.156 11.7046 0.00322348 -0.0052156 -0.00975181
6 2 12.6429 9.10629 2.46355 0.0068429 -0.00518144 -0.0132068
7 1 12.761 7.34123 3.03357 -0.000155236 -0.00219696 0.00353485
8 2 12.0386 6.69587 3.09014 -0.0196237 0.0181549 -0.00326117
9 2 8.92478 8.96223 7.38216 -0.00325586 -0.00961338 -0.00158059
10 1 7.9981 9.14209 6.98076 -5.72618e-05 -0.00170227 0.00531071
11 2 7.23723 7.85443 6.86086 -0.049438 -0.0487137 -0.00718794
12 2 7.47963 9.58727 7.79982 -0.00373779 -0.00595438 -0.0213279
13 1 6.58906 9.62475 4.01048 0.000501961 0.00627006 -0.00508715
14 2 6.01162 9.03876 4.56292 0.0107971 -0.00285622 -0.000911994
15 2 7.02914 9.05305 3.35357 -0.00942764 -0.00569003 0.00658206
16 1 9.69366 7.18636 10.8481 -0.000972021 0.00112736 0.00141444
17 2 10.1661 6.89547 11.6269 -0.00644426 0.0332319 0.014927
18 2 8.72649 7.16366 11.0811 -0.0384401 -0.00807463 -0.0144592
19 1 4.60655 6.69817 10.9227 0.0101104 0.00212725 0.00645296
20 2 3.91491 6.82267 11.6046 0.00490922 0.0190429 0.0100489
21 2 4.38535 8.30607 9.57697 0.00213987 -0.0153205 0.00689701
22 1 10.0361 9.76511 11.1123 -0.000824981 -0.00123634 -0.000771549
23 2 9.60028 9.6388 11.9525 0.0255129 -0.020463 0.0123362
24 2 10.0273 8.88704 10.6686 0.00346227 -0.0120092 -0.00167458
25 1 4.36415 7.88304 5.3649 -0.00218685 -0.00125584 0.00216341
26 2 3.81062 8.34725 5.99028 -0.0187416 -0.0145134 0.00957123
27 2 3.65476 6.09514 5.19793 -0.0147559 -0.0165006 -0.0176176
28 1 10.2416 6.93314 3.81035 0.00290597 0.00401142 -0.00553683
29 2 9.48318 6.42015 4.12743 0.00740857 0.00993575 0.0143109
30 2 10.1829 7.86516 4.06904 -0.011138 0.00128522 -0.0208854
31 1 11.6835 10.9327 5.24315 -0.000585146 0.00192744 0.00403983
32 2 11.5193 11.8208 5.25918 -0.000633892 -0.00591271 -0.0209275
33 2 12.6286 11.0014 5.0533 0.00374623 0.0173606 -0.000118561
34 1 7.4332 4.85308 10.79 -0.00722891 0.011301 -0.0030242
35 2 8.03407 4.13938 10.7561 0.00804495 0.007946 -0.00620254
36 2 6.8416 4.62414 11.473 0.00581154 -0.00292282 0.00859901
37 1 8.57252 12.1682 10.0838 -0.00277853 -0.00337272 0.00748802
38 2 8.9746 12.5458 9.32637 -0.011253 -0.00674361 -0.00903512
39 2 9.00024 11.3732 10.426 -0.00839644 0.0168672 -0.0129238
40 1 10.7391 13.6819 4.75838 0.0020502 0.00327931 -0.000928021
41 2 11.5233 4.29212 4.9646 0.0134 0.00233704 -0.0178097
42 2 10.0162 4.44474 4.73804 -0.0121591 0.0332696 -0.0114296
43 1 3.51729 5.13616 5.091 -0.000531425 -0.00707315 -0.00157538
44 2 3.36652 7.34484 3.9145 0.0181705 -0.0253981 -0.00769441
45 2 4.94643 4.76856 3.41961 -0.000816328 -0.0172691 0.0103781
46 1 10.1211 13.0404 8.04342 0.00146247 0.00371344 0.00605606
47 2 9.5227 12.8998 7.26833 0.0220278 0.0192641 0.0184467
48 2 10.7234 12.2583 8.01036 0.00591464 0.0196639 0.0205393
49 1 10.8392 5.85728 8.45922 -0.00360944 0.00446063 -0.00235884
50 2 10.675 5.08435 7.99776 0.0146986 0.00873354 -0.00287941
51 2 10.1885 5.85917 9.15573 0.00123859 -0.0107087 0.00796096
52 1 9.45204 9.38268 4.04655 0.0019638 -0.0056094 -0.00470305
53 2 10.0214 9.98225 4.47786 0.00482032 0.0108451 -0.00610333
54 2 8.53953 9.56267 4.26531 -0.0114444 0.0261038 -0.0288748
55 1 4.52875 11.3076 3.6014 -0.00257341 0.00367627 -0.00419616
56 2 5.331 10.7504 3.50305 0.014606 0.00886469 -0.00318489
57 2 3.93795 10.9559 2.87768 0.0131402 -0.00728457 -0.0087355
58 1 6.8261 9.98731 9.37072 -0.000777719 -0.000921479 0.00418726
59 2 5.3225 10.6096 6.89071 -0.00508138 -0.0392574 -0.0083682
60 2 7.21731 10.9359 9.42562 0.0228938 -0.00317171 0.0176943
61 1 6.09296 4.94993 8.34972 -0.00564492 0.00735723 -0.000391211
62 2 6.5536 4.93212 9.18625 0.00641654 -0.00784674 -0.0158463
63 2 5.12997 4.65617 8.54386 0.00441455 0.0039648 -0.00885649
64 1 4.96104 11.3705 6.42489 0.00304801 -0.00258809 -0.00141781
65 2 5.27114 11.2185 5.53521 0.0196267 -0.01175 0.0120513
66 2 4.12612 12.7466 7.29903 -0.0217051 -0.000134651 0.014211
67 1 11.6746 10.4339 7.89442 0.00734121 -0.00608409 -0.00227523
68 2 11.7694 10.7259 6.92973 -0.02729 0.000916515 -0.0141601
69 2 12.5779 10.3269 8.30673 0.00109716 0.00589189 0.00752692
70 1 8.15214 5.4066 4.55674 0.00360016 0.000600981 0.0011033
71 2 8.10418 4.56839 5.0204 0.00714557 -0.0251663 0.0218983
72 2 7.68714 6.04229 5.10217 -0.00413548 -0.00776541 0.00709298
73 1 10.444 8.2667 7.1588 -0.0023447 -0.00248117 -0.00280485
74 2 10.461 7.53872 7.84435 0.017653 0.0228074 -0.0221808
75 2 10.7773 9.09813 7.63834 -0.003332 -0.00834808 0.0167416
76 1 3.70588 13.7851 10.3154 -0.00224249 -0.00788529 -0.000728068
77 2 12.6419 13.6432 10.8157 0.00937559 0.0335918 0.00172204
78 2 4.48985 5.76919 10.7776 0.000734608 0.0115416 0.0126468
79 1 4.22497 9.21101 9.27728 -0.00419396 0.00234092 -0.000173627
80 2 3.59175 9.55301 9.95666 0.0202095 0.00235338 -0.00174142
81 2 5.86938 10.0235 9.35042 -0.0241869 0.00599323 0.00603363
82 1 6.99004 8.06843 11.4204 -0.0031134 0.00190768 0.00562194
83 2 6.28332 7.40461 11.2519 -0.0112629 -0.00742342 -0.00443558
84 2 6.98479 8.70793 10.7243 -0.000207655 -0.0255819 -0.015879
85 1 11.1156 13.4351 2.15248 -0.00396502 0.00252109 0.00383397
86 2 10.207 13.5189 2.14652 -0.0230609 -0.0146085 -0.00332291
87 2 4.37408 13.5712 10.9645 0.0135983 -0.0327828 0.00200542
88 1 7.6996 13.0973 6.38961 0.0072861 0.00200951 0.0021754
89 2 7.35414 12.1967 6.16911 -0.0147221 0.00793797 0.0194309
90 2 6.92984 13.4599 6.94126 -0.00330621 0.0124265 -0.0186192
91 1 6.5889 7.00131 6.46655 0.00488231 -0.00220019 0.000455047
92 2 5.12207 7.40265 5.88974 0.00248602 -0.00102856 -0.0174714
93 2 6.49556 6.48319 7.29867 -0.0126668 0.0303512 0.00669602
94 1 3.78165 13.6662 7.68162 0.000256466 -0.0062029 -0.00838568
95 2 3.14361 13.595 8.38215 0.0267201 -0.0158085 0.00866406
96 2 3.60219 4.75958 6.01269 -0.0119376 -0.0119114 0.00518628
ITEM: TIMESTEP
4
ITEM: NUMBER OF ATOMS
96
ITEM: BOX BOUNDS pp pp pp
2.9236100000000000e+00 1.2773600000000000e+01
4.0306300000000004e+00 1.3880599999999999e+01
2.1372399999999998e+00 1.1987200000000000e+01
ITEM: ATOMS id type x y z vx vy vz
1 1 5.11369 13.8757 2.82201 -0.000177226 -0.000594606 -0.00235084
2 2 4.81303 13.0324 3.24894 0.000740518 0.0120591 0.00611047
3 2 11.3548 13.3724 3.08703 -0.0060672 0.0124011 -0.014059
4 1 12.6678 9.98288 11.8567 0.00121663 -0.00453955 -0.00173058
5 2 11.6824 10.1536 11.6994 0.00607164 -0.0043969 -0.0108104
6 2 12.6469 9.10397 2.45682 0.00919025 -0.00427752 -0.0136043
7 1 12.7609 7.34016 3.03535 -0.000119113 -0.00211175 0.00357534
8 2 12.0284 6.70513 3.0891 -0.0213409 0.0188419 -0.000880787
9 2 8.9231 8.95662 7.38043 -0.00367624 -0.0125667 -0.00523712
10 1 7.99802 9.1414 6.98359 -0.000264723 -0.00111846 0.00598708
11 2 7.21125 7.8287 6.85574 -0.0534696 -0.0526968 -0.0131841
12 2 7.4785 9.58325 7.78781 -0.000781685 -0.0099248 -0.0263648
13 1 6.5893 9.62788 4.00798 0.000458905 0.00625205 -0.00493108
14 2 6.01773 9.03738 4.5616 0.0135513 -0.00255334 -0.00421167
15 2 7.02357 9.04997 3.35693 -0.012651 -0.00663549 0.00658627
16 1 9.69312 7.18691 10.8487 -0.001247 0.00105663 0.0011839
17 2 10.1626 6.91217 11.6352 -0.00769655 0.0335635 0.0181776
18 2 8.70806 7.15972 11.074 -0.0341549 -0.00760485 -0.014089
19 1 4.61161 6.69923 10.9259 0.0101236 0.00216064 0.00634894
20 2 3.91702 6.83358 11.6105 0.00379935 0.0244364 0.0131
21 2 4.38636 8.29858 9.58062 0.00179417 -0.0139642 0.00749196
22 1 10.0357 9.76459 11.1118 -0.000735534 -0.000889403 -0.000919748
23 2 9.61278 9.62835 11.9596 0.024564 -0.0212168 0.0158385
24 2 10.029 8.88026 10.6677 0.00337061 -0.0148181 -0.00179363
25 1 4.36307 7.88238 5.36596 -0.00217406 -0.00134163 0.00207983
26 2 3.80135 8.33994 5.99541 -0.01804 -0.0149519 0.0107556
27 2 3.64744 6.08648 5.18919 -0.0144199 -0.0176774 -0.0171457
28 1 10.2432 6.93504 3.80749 0.00337591 0.00356257 -0.00589229
29 2 9.48622 6.42526 4.13496 0.00474623 0.010349 0.0157725
30 2 10.1769 7.86615 4.05922 -0.0124364 0.00287619 -0.0183638
31 1 11.6832 10.9335 5.24518 -0.000287658 0.001326 0.00408323
32 2 11.5168 11.8214 5.24881 -0.00923223 0.00854758 -0.0206184
33 2 12.6317 11.009 5.05285 0.00842481 0.0126382 -0.00160453
34 1 7.42958 4.85884 10.7884 -0.00720288 0.0116739 -0.00322624
35 2 8.03896 4.14201 10.7528 0.010982 0.00323292 -0.00703905
36 2 6.84336 4.62232 11.4785 0.00149166 -0.00422602 0.0128241
37 1 8.57096 12.1665 10.0876 -0.00345669 -0.00343714 0.0080088
38 2 8.9707 12.5426 9.32028 -0.00462711 -0.00636421 -0.0149705
39 2 8.99692 11.3815 10.419 -0.00441767 0.01568 -0.0146734
40 1 10.7401 13.6835 4.75792 0.00182709 0.0028704 -0.000931788
41 2 11.5311 4.29471 4.95606 0.0173973 0.00779049 -0.0164913
42 2 10.0101 4.46224 4.7323 -0.0114841 0.0358294 -0.0114902
43 1 3.51702 5.13262 5.09029 -0.000537323 -0.00715116 -0.00128486
44 2 3.37542 7.33214 3.91037 0.0173845 -0.0253952 -0.00869897
45 2 4.9455 4.75906 3.42519 -0.00289841 -0.0203546 0.011969
46 1 10.1218 13.0422 8.04639 0.00151714 0.00347753 0.00588121
47 2 9.534 12.9098 7.2782 0.0226546 0.0201308 0.0202021
48 2 10.7257 12.2687 8.02066 0.00356436 0.021662 0.0204922
49 1 10.8375 5.85967 8.45809 -0.00345164 0.0050835 -0.00217838
50 2 10.6819 5.08651 7.99516 0.0130403 -6.61151e-05 -0.00743812
51 2 10.1889 5.85406 9.16045 0.00045476 -0.00975549 0.0106731
52 1 9.453 9.37986 4.04408 0.00183548 -0.00563618 -0.00515724
53 2 10.0244 9.9888 4.47596 0.00701444 0.0148702 -0.0018358
54 2 8.5333 9.57617 4.25171 -0.0128498 0.0277374 -0.0257428
55 1 4.52745 11.3095 3.59928 -0.00259117 0.00369939 -0.00431595
56 2 5.33916 10.7548 3.50192 0.0175687 0.00882702 -0.0012539
57 2 3.94376 10.9525 2.87342 0.0101139 -0.00618834 -0.00824929
58 1 6.82587 9.98692 9.37276 -0.000233863 -0.00059804 0.00399387
59 2 5.3198 10.5901 6.88657 -0.00611133 -0.0377013 -0.00849173
60 2 7.22779 10.9328 9.43479 0.0187398 -0.00914087 0.0189072
61 1 6.09004 4.9536 8.34948 -0.00603285 0.00731895 -0.000606437
62 2 6.5573 4.9282 9.17935 0.00840853 -0.00790159 -0.01151
63 2 5.13339 4.65827 8.53876 0.0089507 0.00437216 -0.0113024
64 1 4.96258 11.3692 6.42423 0.00313626 -0.00270084 -0.00120945
65 2 5.28072 11.2127 5.54076 0.0186774 -0.0115098 0.00995509
66 2 4.11397 12.7487 7.30776 -0.0264754 0.00766403 0.0202797
67 1 11.6783 10.4309 7.89335 0.0074779 -0.00573598 -0.00203604
68 2 11.7562 10.7259 6.92288 -0.0250939 -0.00095325 -0.0129321
69 2 12.5777 10.3296 8.30949 -0.00186316 0.00490632 0.00336179
70 1 8.15396 5.40691 4.55724 0.0036412 0.000552397 0.000925537
71 2 8.10748 4.55517 5.03211 0.00612494 -0.0265221 0.0242519
72 2 7.68444 6.03868 5.10642 -0.00649325 -0.00685704 0.00967821
73 1 10.4427 8.26542 7.15746 -0.00250769 -0.00260049 -0.00258726
74 2 10.4701 7.55022 7.83254 0.0185239 0.0220155 -0.0243108
75 2 10.776 9.09361 7.64655 -0.00164065 -0.00941813 0.0158609
76 1 3.70456 13.7811 10.3151 -0.00295656 -0.00797244 -0.000495669
77 2 12.6492 13.6604 10.8154 0.0193162 0.0349317 -0.00289331
78 2 4.49093 5.77347 10.7828 0.00351531 0.00537542 0.00812505
79 1 4.22282 9.21221 9.27721 -0.00436436 0.00241536 -9.17934e-05
80 2 3.60265 9.55373 9.95544 0.0229557 0.000764226 -0.00265265