ITEM: TIMESTEP
0
ITEM: NUMBER OF ATOMS
96
ITEM: BOX BOUNDS pp pp pp
2.9236100000000000e+00 1.2773600000000000e+01
4.0306300000000004e+00 1.3880599999999999e+01
2.1372399999999998e+00 1.1987200000000000e+01
ITEM: ATOMS id type x y z vx vy vz
1 1 5.11675 13.8777 2.82863 0.00143387 0.000464935 0.000909587
2 2 4.81699 13.0283 3.24225 0.00256367 0.0109642 0.00346014
3 2 11.3643 13.3268 3.12896 -0.00528695 -0.00849496 -0.00708234
4 1 12.6576 9.99814 11.8628 -0.00341596 0.00316573 0.00142798
5 2 11.6982 10.1856 11.7246 0.00875909 0.0116696 0.00152157
6 2 12.6478 9.13987 2.49966 0.00829911 0.0132324 0.00716104
7 1 12.7615 7.34959 3.02229 -7.03906e-05 0.00242948 -0.00283896
8 2 12.0856 6.64525 3.12468 0.00778542 -0.00928908 0.0144945
9 2 8.94537 8.94806 7.34174 0.0103008 -0.018199 -0.0239094
10 1 7.99642 9.15685 6.97067 -0.000744347 0.00673216 -0.00079011
11 2 7.31651 7.90848 6.81929 -0.00911167 -0.0251719 -0.0271828
12 2 7.51911 9.5587 7.80892 0.0153828 -0.0200343 -0.0128234
13 1 6.58753 9.6034 4.02931 -0.000116596 -0.0055941 0.00544553
14 2 6.00319 9.03789 4.52941 0.00173457 -0.00814351 -0.015973
15 2 7.01507 9.06051 3.34042 -0.0169603 -0.00212543 -0.00132409
16 1 9.69876 7.18104 10.84 0.00299556 -0.00211722 -0.00311633
17 2 10.1807 6.78829 11.6047 0.00264316 -0.0256455 -0.00260892
18 2 8.82922 7.19618 11.1474 0.00376785 0.0111282 0.02556
19 1 4.57174 6.68864 10.8982 -0.00974618 -0.00393558 -0.00763459
20 2 3.88327 6.8148 11.605 -0.00969485 0.00858627 0.00538976
21 2 4.38287 8.33117 9.57279 0.00263659 -0.0083889 0.00603972
22 1 10.0396 9.77471 11.1138 0.000920548 0.00412852 0.000355024
23 2 9.50602 9.69587 11.942 -0.0238527 0.0117298 -0.000238649
24 2 10.0128 8.88753 10.674 -0.0050731 -0.00923434 0.00377781
25 1 4.37267 7.88599 5.35663 0.00273556 0.000468518 -0.00232794
26 2 3.86804 8.40565 5.97679 0.0118001 0.0204706 0.000737867
27 2 3.70476 6.12048 5.25012 0.0128809 -0.00181784 0.00897474
28 1 10.237 6.91522 3.82607 6.81418e-05 -0.00577098 0.00374664
29 2 9.4357 6.40212 4.09333 -0.0157233 0.00216144 -0.00635359
30 2 10.1965 7.8583 4.16325 -0.00502453 -0.0081748 0.0292666
31 1 11.6879 10.923 5.22982 0.00159461 -0.00209361 -0.00347078
32 2 11.4669 11.9213 5.32709 -0.017633 0.0214038 0.0142184
33 2 12.6416 10.9132 5.03858 0.00292966 -0.0258529 -0.00729458
34 1 7.45772 4.81872 10.7984 0.00658439 -0.00888647 0.00220238
35 2 8.04493 4.04294 10.7693 0.00712218 -0.0410429 0.00194836
36 2 6.77947 4.6181 11.4855 -0.0204709 -0.00488844 0.00700607
37 1 8.57617 12.1763 10.0647 0.000146781 0.00108924 -0.00389708
38 2 9.0909 12.5676 9.29774 0.0479616 0.0012553 -0.0145303
39 2 9.04872 11.354 10.4254 0.0134305 0.0143411 -0.0161373
40 1 10.7331 13.6628 4.76151 -0.000471242 -0.00736053 0.00102927
41 2 11.5211 4.34472 5.0417 0.00298611 0.0249523 0.0227389
42 2 10.0122 4.40153 4.77654 -0.0182449 0.0098813 0.0104021
43 1 3.51942 5.16248 5.09933 0.000666841 0.00836365 0.00273576
44 2 3.29943 7.43375 3.92548 -0.0177371 0.0255759 -0.000808398
45 2 4.92232 4.77636 3.40288 -0.0148844 -0.0123566 0.00172647
46 1 10.1153 13.023 8.01742 -0.00207697 -0.00614069 -0.00894802
47 2 9.47421 12.8587 7.25921 -0.00539808 -0.0021877 0.0143359
48 2 10.6723 12.2275 7.94761 -0.0192667 -0.000460188 -0.0137256
49 1 10.8529 5.84666 8.46793 0.00359748 -0.00274247 0.00211003
50 2 10.6125 4.99169 7.97915 -0.0166738 -0.0251801 -0.00161764
51 2 10.1772 5.90806 9.16077 -0.00128764 0.0164931 0.00685687
52 1 9.4448 9.40078 4.05681 -0.00198198 0.00498509 0.00156595
53 2 10.0355 9.99732 4.55567 0.00768427 0.0128701 0.0333235
54 2 8.546 9.49367 4.41082 -0.00363875 -0.0145551 0.0526578
55 1 4.53616 11.296 3.61493 0.00153104 -0.00285182 0.00359756
56 2 5.3251 10.7073 3.52842 0.00749825 -0.0159093 0.00840073
57 2 3.8664 10.9906 2.91658 -0.0222682 0.0109994 0.0152295
58 1 6.83712 9.99283 9.35362 0.005018 0.00165008 -0.00552759
59 2 5.35515 10.7191 6.93389 0.0182522 0.016845 0.0169875
60 2 7.11432 10.9094 9.38211 -0.0281431 -0.00646866 -0.00656484
61 1 6.10853 4.92359 8.3509 0.00387519 -0.00757886 0.000944959
62 2 6.54711 4.96017 9.26339 -0.000319636 0.00788847 0.0187803
63 2 5.17167 4.64814 8.53668 0.0229223 -0.00176633 -0.0124069
64 1 4.94952 11.3817 6.43017 -0.00386391 0.00433551 0.0011302
65 2 5.19258 11.2544 5.48849 -0.0248764 0.00689423 -0.00811766
66 2 4.13238 12.8467 7.33175 -0.0152627 0.0457749 0.0286733
67 1 11.6518 10.4598 7.90546 -0.00555023 0.0087326 0.00384238
68 2 11.8727 10.7075 6.96857 0.0261164 -0.0073879 0.0025683
69 2 12.5427 10.289 8.25479 -0.0149268 -0.0175319 -0.013435
70 1 8.13992 5.40768 4.54868 -0.00361422 0.00164629 -0.00333533
71 2 8.06327 4.58467 5.00372 -0.0164136 -0.0178799 0.0135215
72 2 7.67131 6.07839 5.11064 -0.0104426 0.00837446 0.0085544
73 1 10.4491 8.27048 7.17246 0.000326576 -0.000796235 0.00484211
74 2 10.4207 7.50587 7.86185 -0.00319349 0.00944981 -0.0137399
75 2 10.8074 9.10042 7.58374 0.0144624 -0.00677384 -0.01064
76 1 3.7036 13.8116 10.3193 -0.00282115 0.00733574 0.00110789
77 2 12.7186 13.5518 10.7543 0.0390377 -0.0192411 -0.0276239
78 2 4.51738 5.7005 10.6907 0.0128277 -0.0117703 -0.030366
79 1 4.23554 9.20669 9.27907 0.00174006 0.000197472 0.00069252
80 2 3.57127 9.52045 9.93489 0.00783289 -0.0145293 -0.0137191
81 2 5.86772 10.012 9.32345 -0.0252029 -0.00329365 -0.00954517
82 1 7.00392 8.06053 11.4053 0.00499011 -0.0018872 -0.0033763
83 2 6.29894 7.43598 11.2466 -0.00602314 0.00868846 -0.00926781
84 2 6.96671 8.80657 10.7472 -0.0110445 0.0217529 0.0043835
85 1 11.137 13.4255 2.13947 0.00755393 -0.0029535 -0.00286477
86 2 10.1885 13.5787 2.14962 -0.0205945 0.0183848 -0.00151031
87 2 4.35985 13.6806 11.0063 0.00859416 0.0292508 0.0261848
88 1 7.6704 13.0882 6.3836 -0.00822743 -0.00281161 -0.00169935
89 2 7.4121 12.2244 6.1184 0.0125322 0.013812 -0.0107399
90 2 7.00067 13.3983 6.96845 0.0243179 -0.0197031 0.00478364
91 1 6.578 7.01111 6.47187 -0.00133922 0.00331337 0.00315549
92 2 5.10725 7.43081 5.94546 -0.00348729 0.013482 0.0123296
93 2 6.52165 6.38118 7.223 0.0052206 -0.021538 -0.0348951
94 1 3.78478 13.6848 7.70427 0.00163115 0.0050764 0.00499366
95 2 3.07727 13.6052 8.36715 -0.00819033 -0.00969531 -0.00315323
96 2 3.64441 4.80444 5.96729 0.0125784 0.00699264 -0.0112943
ITEM: TIMESTEP
1
ITEM: NUMBER OF ATOMS
96
ITEM: BOX BOUNDS pp pp pp
2.9236100000000000e+00 1.2773600000000000e+01
4.0306300000000004e+00 1.3880599999999999e+01
2.1372399999999998e+00 1.1987200000000000e+01
ITEM: ATOMS id type x y z vx vy vz
1 1 5.11752 13.8779 2.82903 0.00164406 0.000466958 0.000673802
2 2 4.8183 13.0343 3.24436 0.00260056 0.0125607 0.00503197
3 2 11.3611 13.3228 3.1239 -0.00759894 -0.00742883 -0.012858
4 1 12.6559 9.9997 11.8635 -0.00341433 0.00308961 0.00140934
5 2 11.7024 10.1916 11.7251 0.00753543 0.0123738 0.0003615
6 2 12.6523 9.1466 2.50305 0.00945833 0.0134849 0.00648872
7 1 12.7614 7.3508 3.0209 -0.000211806 0.00238701 -0.00271397
8 2 12.0891 6.64108 3.13211 0.00647734 -0.00729725 0.0150878
9 2 8.95077 8.93807 7.32898 0.010952 -0.0214576 -0.0270258
10 1 7.99605 9.16037 6.97039 -0.000702268 0.00730772 -0.00038842
11 2 7.30961 7.89291 6.80492 -0.0181574 -0.0365479 -0.0299932
12 2 7.52687 9.54808 7.80181 0.0154641 -0.0221469 -0.0150868
13 1 6.58751 9.60066 4.03202 4.67087e-05 -0.0053375 0.00540914
14 2 6.00396 9.03293 4.52135 0.000997981 -0.0118578 -0.0159181
15 2 7.00582 9.05909 3.33977 -0.0197842 -0.0035867 -0.00152104
16 1 9.7004 7.17992 10.8384 0.00353399 -0.00236074 -0.00321563
17 2 10.1819 6.77603 11.6033 0.00208221 -0.023212 -0.00347534
18 2 8.8288 7.20196 11.1606 -0.0048839 0.0120464 0.0271408
19 1 4.56688 6.68656 10.8943 -0.00967288 -0.00438803 -0.00782572
20 2 3.87872 6.81933 11.6076 -0.00819783 0.00905223 0.00459555
21 2 4.3845 8.32575 9.5763 0.00384478 -0.0128711 0.00779759
22 1 10.04 9.77685 11.114 0.000770191 0.00438981 0.000428751
23 2 9.4947 9.70142 11.9416 -0.0211031 0.0105305 -0.00187789
24 2 10.0102 8.8826 10.6763 -0.00532262 -0.0100943 0.00558706
25 1 4.37406 7.88621 5.35549 0.00279918 0.000421282 -0.00219129
26 2 3.87359 8.41614 5.97726 0.0105352 0.021323 0.000848649
27 2 3.71108 6.11918 5.25403 0.0124182 -0.00297921 0.00665644
28 1 10.2371 6.91232 3.82791 0.000362424 -0.0058159 0.00364345
29 2 9.42795 6.40382 4.0903 -0.0151214 0.00456818 -0.00585686
30 2 10.1933 7.8535 4.17777 -0.00776346 -0.0110667 0.0285485
31 1 11.6887 10.9221 5.22812 0.00157119 -0.00154617 -0.00333251
32 2 11.4586 11.9298 5.33357 -0.0150652 0.0119651 0.0114966
33 2 12.6426 10.9006 5.03478 0.000923015 -0.0240343 -0.00784307
34 1 7.46097 4.81428 10.7995 0.00643082 -0.00893675 0.00231154
35 2 8.04804 13.8722 10.7702 0.00465239 -0.0410468 0.00158099
36 2 6.76983 4.61557 11.4885 -0.0174612 -0.00512595 0.0044951
37 1 8.57624 12.1768 10.0628 0.000189055 0.000858225 -0.00374771
38 2 9.11518 12.5675 9.29096 0.0483854 -0.00164882 -0.0118939
39 2 9.05515 11.3627 10.4163 0.0122382 0.0202233 -0.0200706
40 1 10.733 13.6591 4.76205 8.10948e-06 -0.00752188 0.00117505
41 2 11.522 4.35717 5.05275 -0.000140598 0.0241556 0.0210973
42 2 10.0023 4.40757 4.78167 -0.020586 0.0133702 0.0100623
43 1 3.51975 5.16673 5.10069 0.000649463 0.00862861 0.00266901
44 2 3.29086 7.44657 3.9249 -0.0164054 0.0257382 -0.00141023
45 2 4.91429 4.76939 3.40431 -0.0172513 -0.0151162 0.00409963
46 1 10.1142 13.0199 8.01286 -0.00223571 -0.00629969 -0.0092629
47 2 9.47185 12.8583 7.26727 -0.0045108 0.000513338 0.0172627
48 2 10.6628 12.2274 7.94109 -0.0182625 -0.000569241 -0.0123933
49 1 10.8546 5.84523 8.46893 0.00329998 -0.00301782 0.00188097
50 2 10.6046 4.98052 7.97942 -0.0147314 -0.0186765 0.0031652
51 2 10.1771 5.91642 9.16421 0.000957044 0.0168571 0.00659887
52 1 9.44382 9.4033 4.05755 -0.00194614 0.00512217 0.00147995
53 2 10.039 10.0036 4.57251 0.00591539 0.0116871 0.0333467
54 2 8.54444 9.48662 4.43762 -0.00186119 -0.0138092 0.0540769
55 1 4.53689 11.2946 3.61671 0.00139032 -0.00276311 0.00353799
56 2 5.329 10.6992 3.53251 0.00752262 -0.0161486 0.00782297
57 2 3.85558 10.9961 2.92463 -0.0206584 0.0106779 0.0170372
58 1 6.83968 9.99362 9.35082 0.00512995 0.00149375 -0.00567797
59 2 5.36501 10.7265 6.94251 0.0210119 0.0129741 0.0170245
60 2 7.10082 10.907 9.37927 -0.025583 -0.00258593 -0.00480193
61 1 6.11049 4.91981 8.35145 0.00402441 -0.00751229 0.00128722
62 2 6.54687 4.96405 9.27196 -0.000726641 0.0075599 0.0152043
63 2 5.18328 4.64715 8.52991 0.0227684 -0.00236503 -0.0144185
64 1 4.94754 11.384 6.43069 -0.0040531 0.00466373 0.000974676
65 2 5.18001 11.2575 5.48522 -0.025329 0.00540011 -0.00477078
66 2 4.12403 12.8694 7.34686 -0.0174064 0.0434424 0.0309651
67 1 11.6491 10.4643 7.9074 -0.00525766 0.00910148 0.00389774
68 2 11.8851 10.7038 6.96905 0.0232364 -0.00742715 -0.00054771
69 2 12.5352 10.2796 8.24879 -0.014719 -0.0199802 -0.0101431
70 1 8.13808 5.40859 4.54699 -0.00377059 0.00194344 -0.00337029
71 2 8.05477 4.57472 5.01146 -0.017482 -0.0208316 0.0167807
72 2 7.66597 6.08199 5.11497 -0.0105813 0.00560146 0.00836109
73 1 10.4492 8.26994 7.17491 -3.16098e-05 -0.00133912 0.00490775
74 2 10.4198 7.51179 7.85395 -0.000463032 0.0135968 -0.0171881
75 2 10.8152 9.09673 7.57903 0.0167283 -0.00760985 -0.00802294
76 1 3.70214 13.8153 10.3198 -0.00289971 0.0073256 0.00103303
77 2 12.7379 13.5424 10.7404 0.0367632 -0.0186382 -0.0273112
78 2 4.52379 5.69617 10.6757 0.0124815 -0.00511209 -0.0294139
79 1 4.23634 9.20688 9.27941 0.00148225 0.000521874 0.00064969
80 2 3.57585 9.51307 9.92778 0.00997328 -0.0146687 -0.0142284
81 2 5.85405 10.0101 9.31857 -0.0282857 -0.00439198 -0.00991034
82 1 7.00649 8.05965 11.4036 0.00525477 -0.00160601 -0.00325662
83 2 6.2951 7.44028 11.2414 -0.00917982 0.0086111 -0.011505
84 2 6.9608 8.8164 10.7497 -0.0124721 0.0172901 0.00590245
85 1 11.1408 13.424 2.13813 0.00754703 -0.00297351 -0.00252515
86 2 10.1785 13.5878 2.14869 -0.0182256 0.0178387 -0.00224828
87 2 4.36488 13.6952 11.0201 0.0110102 0.0290881 0.0283529
88 1 7.66639 13.0868 6.38271 -0.00775989 -0.00267972 -0.00188787
89 2 7.41766 12.2308 6.11311 0.00943116 0.0109783 -0.0106319
90 2 7.01206 13.3886 6.97138 0.0204437 -0.0187411 0.00762057
91 1 6.57746 7.0128 6.47352 -0.00084072 0.00346153 0.00337857
92 2 5.10558 7.43787 5.95118 -0.00337211 0.014749 0.0103763
93 2 6.52425 6.37105 7.20508 0.00518319 -0.0194084 -0.0360442
94 1 3.7856 13.6874 7.7067 0.00161245 0.0054171 0.00478239
95 2 3.07404 13.5995 8.36554 -0.00481153 -0.0128584 -0.00323882
96 2 3.65078 4.80709 5.96241 0.0129457 0.00337529 -0.00786311
ITEM: TIMESTEP
2
ITEM: NUMBER OF ATOMS
96
ITEM: BOX BOUNDS pp pp pp
2.9236100000000000e+00 1.2773600000000000e+01
4.0306300000000004e+00 1.3880599999999999e+01
2.1372399999999998e+00 1.1987200000000000e+01
ITEM: ATOMS id type x y z vx vy vz
1 1 5.11839 13.8782 2.8293 0.00186512 0.000479656 0.000420348
2 2 4.81959 13.0409 3.24728 0.00247986 0.0132704 0.00665156
3 2 11.3567 13.3194 3.1161 -0.0095945 -0.00641937 -0.0178198
4 1 12.6542 10.0012 11.8642 -0.00334089 0.0030556 0.00138272
5 2 11.7057 10.198 11.725 0.00557547 0.0128869 -0.000729153
6 2 12.6573 9.15335 2.50615 0.0102206 0.0133412 0.00596953
7 1 12.7613 7.35198 3.01958 -0.000380214 0.00232847 -0.00258247
8 2 12.0921 6.63795 3.13977 0.0052917 -0.00515283 0.0154252
9 2 8.95632 8.9266 7.31471 0.0108367 -0.0240767 -0.0299451
10 1 7.99572 9.16416 6.97028 -0.000613525 0.00777443 -8.33746e-05
11 2 7.29835 7.87193 6.7893 -0.0263342 -0.0466121 -0.0320869
12 2 7.53457 9.53655 7.79383 0.0152075 -0.0236447 -0.0162176
13 1 6.58758 9.59806 4.03472 0.000217132 -0.00506274 0.00536636
14 2 6.00419 9.02603 4.51349 -0.000333751 -0.0157853 -0.0152358
15 2 6.99529 9.05692 3.3389 -0.0221156 -0.00503772 -0.0021826
16 1 9.70229 7.17868 10.8368 0.00398247 -0.00262137 -0.003234
17 2 10.1828 6.76508 11.6012 0.00139333 -0.0204254 -0.00493953
18 2 8.82434 7.20823 11.1745 -0.0120315 0.0130672 0.0280036
19 1 4.56207 6.68425 10.8904 -0.00958299 -0.00481587 -0.00801794
20 2 3.87507 6.82385 11.6096 -0.00620044 0.00860491 0.00306759
21 2 4.38671 8.3183 9.58059 0.0049656 -0.0163284 0.00911241
22 1 10.0404 9.7791 11.1142 0.000581479 0.00458568 0.000521058
23 2 9.48492 9.7064 11.9401 -0.0177947 0.00945838 -0.00409804
24 2 10.0075 8.87744 10.6796 -0.00548548 -0.0101861 0.00776433
25 1 4.37547 7.88641 5.35444 0.00284042 0.000411577 -0.00200261
26 2 3.87858 8.42697 5.97764 0.00953991 0.0218243 0.000325294
27 2 3.71718 6.1175 5.25678 0.0120359 -0.00331199 0.00433887
28 1 10.2374 6.9094 3.82971 0.000617777 -0.00582454 0.0035772
29 2 9.42058 6.40669 4.08747 -0.0142669 0.00677425 -0.00553512
30 2 10.1887 7.84723 4.1918 -0.010351 -0.0139086 0.0273647
31 1 11.6895 10.9215 5.22649 0.00150874 -0.00096831 -0.00318004
32 2 11.4518 11.9333 5.33859 -0.0117494 0.00154497 0.00844174
33 2 12.6425 10.8892 5.03074 -0.00130922 -0.0216234 -0.00832368
34 1 7.46415 4.80978 10.8007 0.00627774 -0.00910421 0.00246582
35 2 8.04958 13.8519 10.7709 0.000995941 -0.0395439 0.00120714
36 2 6.76201 4.61297 11.49 -0.0133507 -0.00516107 0.00104157
37 1 8.57636 12.1772 10.061 0.000320077 0.000715438 -0.00372455
38 2 9.13929 12.566 9.28585 0.0472648 -0.00470254 -0.00799889
39 2 9.06096 11.3742 10.4053 0.0110431 0.0250661 -0.023087
40 1 10.7331 13.6553 4.76269 0.000450499 -0.00748595 0.00136977
41 2 11.521 4.36888 5.0628 -0.00448799 0.022008 0.0187739
42 2 9.99161 4.4149 4.7866 -0.0210739 0.0149667 0.00958199
43 1 3.52007 5.17111 5.102 0.000617096 0.00885702 0.00256622
44 2 3.28302 7.45949 3.92407 -0.0147857 0.0259558 -0.00181716
45 2 4.90507 4.76124 3.40698 -0.019622 -0.0170349 0.0066287
46 1 10.1131 13.0167 8.00816 -0.00237925 -0.00637146 -0.00948784
47 2 9.4697 12.8592 7.27647 -0.00466308 0.00294897 0.018875
48 2 10.654 12.2269 7.93522 -0.0163403 -0.00184928 -0.0111737
49 1 10.8562 5.84364 8.46981 0.00295019 -0.00336661 0.00164057
50 2 10.5978 4.97301 7.98232 -0.0123746 -0.0108573 0.00866366
51 2 10.1782 5.92492 9.16737 0.00365628 0.0170901 0.00582858
52 1 9.44285 9.4059 4.05829 -0.00192806 0.00533302 0.00154054
53 2 10.0414 10.009 4.58902 0.00322199 0.00917927 0.0320312
54 2 8.54414 9.47986 4.4649 0.00130186 -0.0133471 0.0544821
55 1 4.53755 11.2932 3.61847 0.00127894 -0.00270063 0.00348893
56 2 5.33262 10.6912 3.53624 0.00647622 -0.0159457 0.00701702
57 2 3.84574 11.0013 2.93362 -0.0184135 0.0100991 0.0189366
58 1 6.84225 9.99432 9.34794 0.00503965 0.00130942 -0.0058147
59 2 5.37616 10.7321 6.95091 0.0232874 0.00999913 0.0160875
60 2 7.08874 10.9068 9.37731 -0.022572 0.0019132 -0.00304675
61 1 6.11255 4.91608 8.35219 0.00429887 -0.00740811 0.00165128
62 2 6.54638 4.96773 9.27859 -0.00129034 0.00708185 0.0111292
63 2 5.19444 4.64577 8.52226 0.0211126 -0.00331712 -0.0159054
64 1 4.94547 11.3864 6.43114 -0.00421868 0.00493603 0.000856458
65 2 5.16725 11.2598 5.48372 -0.0256111 0.00375815 -0.00116576
66 2 4.11497 12.8901 7.36272 -0.0180412 0.0376638 0.0316151
67 1 11.6465 10.4689 7.90936 -0.00495713 0.00945497 0.00387991
68 2 11.8959 10.7001 6.96802 0.0197624 -0.00737104 -0.00330361
69 2 12.528 10.269 8.24465 -0.014126 -0.0225145 -0.0061242
70 1 8.13615 5.40962 4.54531 -0.00397612 0.0021389 -0.00326837
71 2 8.04579 4.56384 5.0205 -0.0182971 -0.0215345 0.018699
72 2 7.66073 6.08399 5.119 -0.0101108 0.00209678 0.00736924
73 1 10.4491 8.26914 7.17737 -0.000382486 -0.00182438 0.00485729
74 2 10.4202 7.51947 7.84466 0.00221314 0.0163094 -0.0191726
75 2 10.8241 9.09281 7.57572 0.0192725 -0.00773324 -0.00508221
76 1 3.7007 13.8189 10.3203 -0.00272217 0.00735244 0.000963624
77 2 12.7554 13.5332 10.727 0.0317086 -0.0188985 -0.0257089
78 2 4.52986 5.69539 10.6613 0.0114613 0.00212593 -0.0277338
79 1 4.23702 9.20721 9.27972 0.00131139 0.000741521 0.000566714
80 2 3.58124 9.50578 9.92066 0.0110236 -0.0141274 -0.0137072
81 2 5.83943 10.0076 9.31354 -0.0289393 -0.00586752 -0.0101464
82 1 7.00917 8.05892 11.402 0.00547637 -0.00131174 -0.00318583
83 2 6.28976 7.44459 11.2351 -0.0119149 0.00876269 -0.0135019
84 2 6.95424 8.82386 10.7531 -0.013649 0.0124065 0.00778352
85 1 11.1445 13.4225 11.9869 0.00737948 -0.00296655 -0.00222377
86 2 10.1703 13.5965 2.14737 -0.0136828 0.0169129 -0.00308261
87 2 4.37086 13.7097 11.0347 0.0122599 0.0291798 0.0292557
88 1 7.66264 13.0855 6.38171 -0.00717682 -0.00248361 -0.00213823
89 2 7.42153 12.2354 6.10777 0.00584512 0.00673699 -0.0109039
90 2 7.02111 13.3796 6.97607 0.0151701 -0.0173167 0.0116523
91 1 6.57716 7.01457 6.47525 -0.000358827 0.00361506 0.00347839
92 2 5.10388 7.44556 5.95584 -0.00363671 0.016006 0.00806465
93 2 6.52683 6.36177 7.18696 0.00522497 -0.0181277 -0.0356657
94 1 3.78639 13.6902 7.70905 0.00149436 0.00595144 0.00465494
95 2 3.07246 13.5923 8.36391 -0.00167832 -0.015709 -0.00314177
96 2 3.65736 4.80782 5.95943 0.0133571 -0.000557887 -0.00394819
ITEM: TIMESTEP
3
ITEM: NUMBER OF ATOMS
96
ITEM: BOX BOUNDS pp pp pp
2.9236100000000000e+00 1.2773600000000000e+01
4.0306300000000004e+00 1.3880599999999999e+01
2.1372399999999998e+00 1.1987200000000000e+01
ITEM: ATOMS id type x y z vx vy vz
1 1 5.11938 13.8784 2.82945 0.00209064 0.000504618 0.000156771
2 2 4.82078 13.0476 3.25101 0.00223329 0.013048 0.0082438
3 2 11.3515 13.3164 3.10608 -0.0110933 -0.00555371 -0.0215021
4 1 12.6525 10.0028 11.8649 -0.0032071 0.00306489 0.00134551
5 2 11.708 10.2045 11.7243 0.00305652 0.0131457 -0.00171758
6 2 12.6625 9.15994 2.50902 0.0105666 0.0128139 0.00559701
7 1 12.7611 7.35312 3.01832 -0.000570758 0.00225746 -0.0024426
8 2 12.0944 6.63593 3.14753 0.00421748 -0.00288512 0.0155278
9 2 8.9616 8.914 7.29904 0.00979486 -0.0259544 -0.0326276
10 1 7.99544 9.16815 6.9703 -0.000479777 0.00811642 0.000114372
11 2 7.28327 7.8463 6.77283 -0.0331703 -0.054831 -0.0333041
12 2 7.54207 9.52444 7.78559 0.0146224 -0.0244901 -0.0160763
13 1 6.58773 9.5956 4.03739 0.000380443 -0.00479055 0.00532331
14 2 6.00362 9.01715 4.50612 -0.00207339 -0.0196714 -0.0140595
15 2 6.98371 9.05405 3.33758 -0.0239394 -0.00638218 -0.00327263
16 1 9.70438 7.1773 10.8352 0.00429966 -0.00288956 -0.00316532
17 2 10.1833 6.7556 11.5983 0.000607314 -0.0173571 -0.00685103
18 2 8.81677 7.21502 11.1887 -0.0170869 0.0141261 0.0279168
19 1 4.5573 6.68174 10.8863 -0.00947043 -0.00518815 -0.00821145
20 2 3.87252 6.82794 11.6107 -0.00387341 0.00737085 0.000993559
21 2 4.38946 8.30942 9.58541 0.00594254 -0.0184616 0.00988875
22 1 10.0406 9.78143 11.1145 0.000364082 0.0047181 0.000622209
23 2 9.47691 9.71088 11.9375 -0.0140882 0.00855316 -0.00663904
24 2 10.0047 8.87241 10.6841 -0.00552074 -0.00959597 0.0101954
25 1 4.3769 7.88662 5.35349 0.00285417 0.000443204 -0.00176834
26 2 3.88313 8.43796 5.97759 0.00884813 0.021926 -0.000822138
27 2 3.72311 6.11587 5.25837 0.0117639 -0.00282744 0.00211463
28 1 10.2377 6.90649 3.83149 0.000834544 -0.00580517 0.00354463
29 2 9.41368 6.41059 4.08476 -0.0132613 0.00863036 -0.0053929
30 2 10.1829 7.83959 4.20513 -0.0126651 -0.0164949 0.0257738
31 1 11.6902 10.9211 5.22494 0.00141019 -0.000403652 -0.00301423
32 2 11.4469 11.9314 5.34201 -0.00793508 -0.00906269 0.00515308
33 2 12.6413 10.879 5.02646 -0.0035257 -0.0187168 -0.00877979
34 1 7.46725 4.80518 10.802 0.00612981 -0.00937092 0.00265078
35 2 8.04903 13.8326 10.7714 -0.00357349 -0.0367329 0.000801579
36 2 6.75648 4.61041 11.4896 -0.00844986 -0.005036 -0.00304946
37 1 8.57656 12.1775 10.0591 0.000522619 0.000668921 -0.00382254
38 2 9.16245 12.5628 9.28296 0.0446941 -0.00762429 -0.00322692
39 2 9.06619 11.3878 10.3932 0.00999399 0.0284323 -0.0249135
40 1 10.7334 13.6516 4.76342 0.00083099 -0.00726002 0.00161177
41 2 11.5175 4.37918 5.07152 -0.00969993 0.0186726 0.0158761
42 2 9.98119 4.42254 4.79125 -0.0197202 0.0146374 0.00893197
43 1 3.52037 5.17559 5.10325 0.000573008 0.00903276 0.00245022
44 2 3.27607 7.47253 3.92308 -0.0129364 0.0262191 -0.00208185
45 2 4.89467 4.75236 3.41094 -0.0219613 -0.0180898 0.00921844
46 1 10.1118 13.0135 8.00337 -0.00249364 -0.00636199 -0.00961561
47 2 9.46719 12.8613 7.28614 -0.00593567 0.00505719 0.019101
48 2 10.6465 12.2255 7.92992 -0.013648 -0.00417677 -0.0101127
49 1 10.8576 5.84186 8.47057 0.00257112 -0.00375178 0.00140347
50 2 10.5922 4.96967 7.98809 -0.00976562 -0.00236569 0.014474
51 2 10.1807 5.93351 9.17004 0.00662946 0.0172184 0.00473295
52 1 9.44189 9.40863 4.05909 -0.00193268 0.00560589 0.00174508
53 2 10.0423 10.0128 4.60454 -0.000162229 0.00555942 0.0294733
54 2 8.54574 9.47327 4.49211 0.00562838 -0.0131461 0.0538207
55 1 4.53817 11.2919 3.6202 0.00120014 -0.00266256 0.00345483
56 2 5.33547 10.6833 3.53953 0.00449869 -0.0153381 0.0060448
57 2 3.83717 11.0062 2.94356 -0.0157016 0.00925853 0.0208052
58 1 6.84472 9.99493 9.345 0.00475638 0.00112266 -0.00593839
59 2 5.3883 10.7365 6.9586 0.0249214 0.00806664 0.0141111
60 2 7.07825 10.9089 9.37622 -0.0192968 0.00656168 -0.00131474
61 1 6.11479 4.9124 8.35311 0.00468746 -0.00726902 0.00201775
62 2 6.54558 4.97113 9.28309 -0.00194886 0.00645752 0.00680002
63 2 5.20439 4.64383 8.514 0.0180406 -0.0046059 -0.0168656
64 1 4.94332 11.3889 6.43155 -0.00435224 0.00514124 0.000796615
65 2 5.1544 11.2613 5.48405 -0.0256853 0.00199036 0.00242935
66 2 4.10599 12.9071 7.37848 -0.0171379 0.028593 0.0306473
67 1 11.6441 10.4737 7.91128 -0.00464303 0.00978757 0.00378786
68 2 11.9049 10.6964 6.96574 0.0157839 -0.00726813 -0.00547348
69 2 12.5211 10.2571 8.24267 -0.0133348 -0.0250465 -0.0016199
70 1 8.1341 5.41073 4.54372 -0.0042262 0.00222147 -0.00303369
71 2 8.03647 4.55318 5.03016 -0.0188103 -0.0200284 0.0192281
72 2 7.65586 6.08408 5.12234 -0.00910682 -0.00194453 0.00564836
73 1 10.4488 8.26812 7.17977 -0.000714095 -0.00222913 0.00468587
74 2 10.422 7.5281 7.83478 0.00477047 0.0173403 -0.0195275
75 2 10.8344 9.089 7.57395 0.0220395 -0.00719955 -0.00191989
76 1 3.69942 13.8226 10.3208 -0.00230689 0.00741764 0.000918435
77 2 12.7696 13.5235 10.7147 0.024308 -0.0200199 -0.0229948
78 2 4.53526 5.6983 10.6479 0.00982937 0.00932607 -0.0255242
79 1 4.23765 9.20762 9.27998 0.00123579 0.000838202 0.000446751
80 2 3.58688 9.49894 9.91407 0.0109347 -0.0128981 -0.0121003
81 2 5.82511 10.0043 9.30842 -0.0271449 -0.00766359 -0.0102383
82 1 7.01196 8.05834 11.4005 0.0056435 -0.00102919 -0.00315545
83 2 6.28318 7.44904 11.2279 -0.014051 0.00918645 -0.0151606
84 2 6.94715 8.82881 10.7575 -0.0145173 0.0074293 0.00979381
85 1 11.1482 13.421 11.9859 0.00707435 -0.00293196 -0.00199204
86 2 10.1648 13.6047 2.14561 -0.00747446 0.0156686 -0.00405063
87 2 4.37714 13.7243 11.0493 0.0121976 0.0295028 0.0288364
88 1 7.65921 13.0843 6.38057 -0.00652321 -0.00223883 -0.00243104
89 2 7.42351 12.2375 6.10221 0.00194674 0.00157154 -0.0114277
90 2 7.02723 13.3713 6.98303 0.00903815 -0.0156466 0.0164605
91 1 6.5771 7.01642 6.477 8.56031e-05 0.00375624 0.00345093
92 2 5.10194 7.45388 5.95925 -0.00433818 0.0172541 0.00545064
93 2 6.52947 6.35292 7.16941 0.00536712 -0.0177886 -0.0337746
94 1 3.7871 13.6934 7.71136 0.0012839 0.00666667 0.00460141
95 2 3.07236 13.5838 8.3624 0.00107461 -0.0181668 -0.00273943
96 2 3.66414 4.80653 5.95847 0.0137593 -0.00453429 2.23644e-05
ITEM: TIMESTEP
4
ITEM: NUMBER OF ATOMS
96
ITEM: BOX BOUNDS pp pp pp
2.9236100000000000e+00 1.2773600000000000e+01
4.0306300000000004e+00 1.3880599999999999e+01
2.1372399999999998e+00 1.1987200000000000e+01
ITEM: ATOMS id type x y z vx vy vz
1 1 5.12048 13.8787 2.82946 0.00231178 0.000543101 -0.000104692
2 2 4.82182 13.0539 3.25553 0.00191804 0.0119219 0.00970515
3 2 11.3456 13.3138 3.0946 -0.0119501 -0.00491367 -0.0235303
4 1 12.651 10.0043 11.8656 -0.00302837 0.00311645 0.00129587
5 2 11.7088 10.2111 11.7232 0.000206266 0.0130854 -0.00256917
6 2 12.6678 9.16617 2.51175 0.0104903 0.0119462 0.0053458
7 1 12.7607 7.35423 3.01713 -0.000777021 0.00217838 -0.00229245
8 2 12.0963 6.63507 3.1553 0.00323592 -0.000529629 0.0154254
9 2 8.96612 8.90065 7.28209 0.00777231 -0.0270464 -0.0350159
10 1 7.99524 9.17227 6.9704 -0.000302786 0.00833226 0.000195688
11 2 7.26518 7.8171 6.75599 -0.0381165 -0.0606009 -0.0335131
12 2 7.5492 9.51206 7.77776 0.0137074 -0.024674 -0.0145481
13 1 6.58796 9.59327 4.04004 0.000521087 -0.00454516 0.00528464
14 2 6.00211 9.00636 4.49943 -0.00398528 -0.0232283 -0.0125522
15 2 6.97135 9.05054 3.33563 -0.025269 -0.00750511 -0.00470767
16 1 9.70659 7.17579 10.8336 0.00446007 -0.00315447 -0.00301152
17 2 10.1834 6.74772 11.5944 -0.000211496 -0.0141083 -0.00902258
18 2 8.80725 7.22235 11.2025 -0.0197364 0.0151505 0.0267356
19 1 4.5526 6.67906 10.8822 -0.00932958 -0.00547495 -0.00840646
20 2 3.8712 6.83122 11.6106 -0.00141755 0.00550273 -0.00140117
21 2 4.39266 8.29984 9.59048 0.00673711 -0.0191046 0.0100741
22 1 10.0407 9.78382 11.1149 0.000129891 0.00479276 0.000722246
23 2 9.47083 9.71495 11.9335 -0.0101785 0.00785432 -0.00921329
24 2 10.002 8.86784 10.6898 -0.00538947 -0.00845778 0.0127369
25 1 4.37832 7.88685 5.35267 0.00283543 0.000518204 -0.00149995
26 2 3.88742 8.4489 5.97682 0.00844792 0.0216282 -0.00253362
27 2 3.72894 6.11467 5.25889 0.0116184 -0.00161791 6.55842e-05
28 1 10.2382 6.9036 3.83326 0.00101315 -0.00576599 0.00354222
29 2 9.40732 6.41532 4.08208 -0.0121947 0.0100017 -0.00544075
30 2 10.1761 7.83074 4.21757 -0.0145835 -0.0186438 0.0238493
31 1 11.6909 10.9211 5.22347 0.0012797 0.000105969 -0.00283628
32 2 11.4439 11.9242 5.34374 -0.00387171 -0.0190954 0.00174406
33 2 12.639 10.8704 5.02196 -0.00549367 -0.0154165 -0.00925662
34 1 7.47028 4.80041 10.8034 0.0059919 -0.00971287 0.00285029
35 2 8.04601 13.8151 10.7717 -0.00872588 -0.0328958 0.000342841
36 2 6.75356 4.60794 11.4869 -0.00312888 -0.00479798 -0.0074321
37 1 8.57688 12.1778 10.0571 0.000777961 0.00072078 -0.00403187
38 2 9.18398 12.5583 9.28262 0.040835 -0.0101213 0.00199079
39 2 9.07095 11.4027 10.3804 0.00921307 0.0299635 -0.0253287
40 1 10.7339 13.648 4.7643 0.00113241 -0.00686508 0.00189609
41 2 11.5113 4.38755 5.07867 -0.0153615 0.0143837 0.0125534
42 2 9.97189 4.42954 4.79553 -0.0167165 0.0125042 0.00809527
43 1 3.52064 5.18014 5.10445 0.000522146 0.00914373 0.0023454
44 2 3.27009 7.48571 3.92199 -0.0109288 0.0265096 -0.00227648
45 2 4.88311 4.74315 3.4162 -0.0242176 -0.0183289 0.0117308
46 1 10.1106 13.0103 7.99854 -0.00256667 -0.00628612 -0.00964728
47 2 9.46376 12.8643 7.29557 -0.00831143 0.00681018 0.0179934
48 2 10.6404 12.2228 7.9251 -0.0104165 -0.00730456 -0.00923739
49 1 10.8588 5.83989 8.47121 0.00218874 -0.00413309 0.00118324
50 2 10.588 4.97065 7.99679 -0.00710039 0.006083 0.0201742
51 2 10.1848 5.94214 9.1721 0.00967024 0.017281 0.00353139
52 1 9.44092 9.41151 4.06004 -0.00196228 0.00592509 0.00208161
53 2 10.0413 10.0146 4.61849 -0.00394961 0.00110954 0.0258458
54 2 8.54977 9.46671 4.51872 0.0107897 -0.0131782 0.0521126
55 1 4.53875 11.2906 3.62192 0.00115491 -0.0026438 0.00344076
56 2 5.33712 10.6758 3.54229 0.00179974 -0.0144085 0.00496931
57 2 3.83004 11.0105 2.95442 -0.012726 0.00815565 0.0225055
58 1 6.84701 9.99545 9.342 0.00430263 0.000959461 -0.0060501
59 2 5.40108 10.7401 6.96503 0.0258275 0.00720703 0.0111264
60 2 7.06944 10.9134 9.37599 -0.0159392 0.010881 0.00037626
61 1 6.11724 4.90881 8.3542 0.00517023 -0.00710086 0.00236796
62 2 6.54443 4.97419 9.28539 -0.00265108 0.00570041 0.00245882
63 2 5.21248 4.64117 8.5054 0.013769 -0.0061798 -0.0173291
64 1 4.94111 11.3915 6.43194 -0.00444979 0.00527666 0.000811634
65 2 5.14157 11.2618 5.48615 -0.0255215 0.000117752 0.00573919
66 2 4.09784 12.9187 7.39336 -0.0148334 0.0167782 0.0282597
67 1 11.6419 10.4787 7.91315 -0.0043093 0.0100932 0.00362606
68 2 11.9117 10.6928 6.96255 0.0114113 -0.00715681 -0.00689691
69 2 12.5146 10.244 8.24303 -0.0125534 -0.027471 0.00310903
70 1 8.13192 5.41184 4.54228 -0.00451317 0.0021891 -0.00268054
71 2 8.02698 4.54381 5.03973 -0.0189903 -0.0165567 0.0184259
72 2 7.65162 6.08205 5.12465 -0.00769275 -0.00625982 0.0033254
73 1 10.4484 8.26691 7.18205 -0.00101408 -0.00253491 0.00439826
74 2 10.425 7.53681 7.82513 0.00716514 0.0165764 -0.0182108
75 2 10.8462 9.08561 7.5738 0.0249225 -0.00615054 0.00133518
76 1 3.69839 13.8263 10.3213 -0.00169634 0.00751588 0.000916773
77 2 2.92968 13.5131 10.704 0.015273 -0.0218638 -0.0194636
78 2 4.53969 5.70471 10.6358 0.00767212 0.0158579 -0.0230128
79 1 4.23826 9.20805 9.28017 0.00125425 0.000804801 0.000296721
80 2 3.59218 9.49288 9.90856 0.00976616 -0.0110248 -0.00945419
81 2 5.81229 9.99994 9.3033 -0.0230745 -0.00969835 -0.0101816