ITEM: TIMESTEP
0
ITEM: NUMBER OF ATOMS
96
ITEM: BOX BOUNDS pp pp pp
2.9236100000000000e+00 1.2773600000000000e+01
4.0306300000000004e+00 1.3880599999999999e+01
2.1372399999999998e+00 1.1987200000000000e+01
ITEM: ATOMS id type x y z vx vy vz
1 1 7.03442 13.3862 3.37424 -0.00393775 0.000763158 0.0037579
2 2 6.5563 12.5612 3.40889 0.0102425 -0.0159377 -0.013648
3 2 11.459 12.9607 11.2553 0.013072 0.0139822 -0.0174471
4 1 3.58885 11.9092 10.8115 0.00604369 0.00229043 0.00438087
5 2 3.67638 10.9592 10.7336 0.0270289 -0.0223736 -0.0190854
6 2 3.88351 12.1628 9.93062 0.0116423 -0.00313849 -0.00112671
7 1 12.5884 8.26867 2.67568 0.00220119 -0.003793 0.0061026
8 2 11.809 8.02612 3.11578 -0.0320087 -0.0181729 0.0102187
9 2 8.38086 7.87992 8.33371 -0.0212233 -0.00708392 -0.0115935
10 1 7.69422 8.36902 7.91736 0.00112932 0.00366745 6.68311e-05
11 2 7.05341 7.72088 7.63636 0.0234147 -0.026045 0.00926482
12 2 6.51763 9.43845 8.96273 0.0272411 0.0141881 -0.00452238
13 1 5.91871 9.13672 2.76817 0.00120369 0.00653555 -0.00987978
14 2 5.96847 9.11812 11.6099 -0.00713136 -0.0288424 -0.0159127
15 2 5.33814 8.33086 2.82219 0.00805206 0.00720383 0.00443011
16 1 8.81704 7.48388 11.3609 -0.00344042 0.0026478 -0.0040522
17 2 9.21053 7.23291 2.41529 -0.00714734 0.017888 0.0214555
18 2 8.08636 6.85529 11.1101 -0.00107845 0.0157667 -0.00749113
19 1 4.34797 6.2162 2.3111 -0.00292247 0.00115 0.00624446
20 2 3.52112 6.87475 2.38632 0.0128679 -0.0158677 0.0165623
21 2 12.3503 8.71596 10.7029 0.00325812 -0.0348519 0.0313287
22 1 9.75884 10.1734 11.6687 0.00164619 0.00509957 0.00154053
23 2 9.74055 10.1658 2.7571 -0.0235874 -0.0131853 -0.0110884
24 2 9.28798 9.31907 11.5365 -0.00308784 -0.00697424 0.0282244
25 1 3.12228 8.4861 5.72213 -0.00521439 -0.00200061 -0.00168368
26 2 3.33781 9.45737 5.90218 -0.00127533 -0.00333104 0.00593421
27 2 4.72895 5.35985 3.67764 -0.0269323 -0.0149102 -0.00242566
28 1 10.1626 7.11432 3.82049 0.00132104 -0.00428087 -0.000738916
29 2 10.1425 6.10906 3.98409 -0.00113696 -0.0148273 0.000384633
30 2 9.67126 7.48706 4.52184 0.0109353 -0.00669287 0.00314064
31 1 3.48219 11.028 5.83015 -0.00142907 -0.00120335 -0.00317327
32 2 12.5812 12.9088 5.93544 -0.0153664 0.0108775 0.0253954
33 2 3.91554 11.2102 4.93558 -0.000200223 -0.00797015 -0.0132538
34 1 8.52201 5.08277 8.54288 -0.0020131 -0.00650368 -0.00279104
35 2 8.80789 4.13488 8.71836 0.024494 0.0144574 -0.0129332
36 2 7.87392 5.20767 9.23063 -0.00440276 -0.0225939 -0.0210316
37 1 7.66918 11.573 10.808 -0.000471215 -0.00739879 -0.0053786
38 2 8.47762 11.5026 9.3886 -0.00200007 -0.0157001 0.00258165
39 2 8.46695 11.0823 11.1914 0.0334238 -0.00288498 -0.0171405
40 1 12.3119 4.03423 5.88517 3.2986e-05 0.00554922 0.00168549
41 2 3.95166 4.82162 4.87325 0.000593013 -0.019585 0.0190896
42 2 11.5317 4.07648 5.26594 0.00627789 -0.0246816 -0.0154894
43 1 4.83021 5.10638 4.61216 0.00172631 0.00316979 -0.00163769
44 2 3.21249 8.60008 3.5186 -0.013889 -0.0222936 0.0224445
45 2 6.65586 4.15115 3.97095 0.00583306 -0.0155941 0.00540911
46 1 8.82387 11.9172 8.5376 -0.000261816 0.00360263 -0.00149707
47 2 7.86888 11.7158 7.30456 -0.000808349 0.0101229 0.018543
48 2 9.70523 11.6524 8.30948 -0.0340578 -0.00139098 -0.0106525
49 1 10.3966 6.97803 9.21157 -0.00160886 -0.000337663 -0.000260162
50 2 10.0059 6.10701 9.09211 -0.012154 0.00523002 0.00459008
51 2 9.75501 7.32223 9.9014 -0.0198485 -0.00233212 -0.0320222
52 1 9.19263 10.0194 4.70234 0.00315658 -0.000793175 -0.00700805
53 2 9.87458 9.6311 5.26678 -0.00474271 -0.0129986 0.0160465
54 2 8.62443 10.3954 5.35945 0.0138204 -0.00647429 0.00753628
55 1 4.88933 11.6524 3.35989 -0.00407781 -0.00475159 0.0023
56 2 5.19356 10.7407 3.19126 -0.0101841 0.0102017 0.0170715
57 2 4.39676 11.8518 2.56295 -0.0161956 0.00926762 -0.0212886
58 1 5.99009 9.91542 9.56866 -0.00266333 0.00179842 -0.00528186
59 2 4.89152 12.6663 7.78524 -0.00422926 -0.0401116 -0.0117415
60 2 7.09031 10.7807 10.468 0.0245003 0.00607094 0.0127371
61 1 7.66009 4.61178 5.98234 -0.000136408 0.0066999 0.0124575
62 2 8.14165 4.94878 6.75512 -0.0310487 -0.000228387 0.00733015
63 2 6.76532 5.03892 6.06789 -0.00129829 -0.00336497 -0.0262654
64 1 5.07153 11.7474 7.7771 0.00436448 -0.00386454 -0.0050882
65 2 4.25019 11.2887 6.54822 0.0389002 -0.00515204 -0.00445274
66 2 3.3698 4.52311 7.41983 0.0168712 0.0272973 0.0286617
67 1 11.4557 11.114 8.05442 0.00369402 0.0104349 -0.000285824
68 2 12.2186 11.0553 7.49645 -0.00480154 -0.0304699 -0.00140744
69 2 11.7632 10.5972 8.89046 0.00863836 0.0092478 -0.000998416
70 1 9.96431 4.377 4.08327 -0.00103737 0.00216978 -0.000951241
71 2 9.9696 13.8039 3.19627 -0.00653539 0.0110982 0.00545843
72 2 9.01874 4.23626 4.26863 -0.000278154 -0.0185243 -0.0182983
73 1 10.4839 7.61832 6.38779 0.00410396 0.00395366 0.00249274
74 2 10.399 7.33239 7.34376 0.0066954 -0.0147465 -0.0170215
75 2 11.4423 7.83988 6.22848 -0.00414152 0.00791403 0.0239482
76 1 12.7015 5.38947 10.2781 0.00102623 -0.000603967 0.000796419
77 2 12.0917 5.95813 9.7547 -0.00687399 -0.0191157 -0.0209345
78 2 4.00381 5.5371 11.5173 -0.00288928 -0.0145025 0.0300321
79 1 12.3793 8.89437 9.75664 -0.0068732 -0.00429762 -0.00255941
80 2 11.5147 8.49817 9.46084 -0.0153785 -0.00488909 0.018604
81 2 5.47186 10.5653 9.08393 0.00613628 0.0187304 -0.00487501
82 1 7.06764 5.37432 10.9529 0.00221124 0.000791232 -0.00299358
83 2 7.14805 4.64058 11.5988 -0.0261502 0.0050044 -0.0165967
84 2 6.25451 5.68771 11.3862 -0.0120792 -0.0382641 -0.00213088
85 1 10.5348 13.2785 11.2365 -0.00104784 9.3905e-05 0.00686232
86 2 10.0483 12.6847 10.6989 -0.0160946 -0.00392254 0.000680901
87 2 12.1587 4.69608 10.6347 0.0156661 0.0284473 -0.0121554
88 1 7.23188 11.8577 6.42462 0.0010383 -0.00563237 0.0002605
89 2 6.09287 11.7373 6.97083 -0.0106036 0.00444251 -0.00119858
90 2 7.33145 12.8992 6.24782 0.00965333 -0.00346291 0.00392103
91 1 5.37288 6.88645 6.40481 0.00106974 -0.0004282 0.00339349
92 2 3.94219 8.03633 5.99432 0.0106557 0.0114452 -0.0104234
93 2 5.13965 6.18333 7.01912 0.00800642 0.0025822 -0.00632676
94 1 4.13576 4.5865 8.04634 0.00182231 0.00480541 0.0032307
95 2 3.74973 4.76192 8.91873 0.0101269 0.0080163 0.00645134
96 2 5.56799 6.41058 5.54621 0.00239763 0.00713778 -0.00944621
ITEM: TIMESTEP
1
ITEM: NUMBER OF ATOMS
96
ITEM: BOX BOUNDS pp pp pp
2.9236100000000000e+00 1.2773600000000000e+01
4.0306300000000004e+00 1.3880599999999999e+01
2.1372399999999998e+00 1.1987200000000000e+01
ITEM: ATOMS id type x y z vx vy vz
1 1 7.03257 13.3866 3.37605 -0.0034771 0.000806882 0.00345712
2 2 6.56052 12.5529 3.40235 0.00672397 -0.0168884 -0.012448
3 2 11.4645 12.9672 11.2462 0.00864287 0.0120429 -0.0190681
4 1 3.59185 11.9103 10.8136 0.0059878 0.00220979 0.00419165
5 2 3.68971 10.948 10.724 0.0261305 -0.0213678 -0.0191655
6 2 3.88942 12.1612 9.93031 0.0118929 -0.00298631 0.00013562
7 1 12.5897 8.26687 2.67885 0.00271431 -0.00343133 0.00663219
8 2 11.7907 8.01601 3.12108 -0.0396526 -0.0217116 0.0101169
9 2 8.37061 7.87567 8.32801 -0.019035 -0.00996623 -0.0107841
10 1 7.69475 8.37091 7.9174 0.000949948 0.00388532 6.11259e-05
11 2 7.06517 7.7076 7.64079 0.0233724 -0.026764 0.00833183
12 2 6.53255 9.44449 8.95879 0.0319321 0.0104018 -0.0108179
13 1 5.91922 9.13985 2.76306 0.00085196 0.0059924 -0.0105724
14 2 5.96522 9.10449 11.604 -0.00583447 -0.025504 -0.00758476
15 2 5.34298 8.33574 2.82492 0.0111624 0.0121397 0.00653733
16 1 8.81529 7.48521 11.3589 -0.00352316 0.00268026 -0.00406635
17 2 9.20664 7.24167 2.42549 -0.00867036 0.0171799 0.0188325
18 2 8.08634 6.86295 11.1072 0.000847711 0.0146945 -0.00405817
19 1 4.34644 6.21684 2.31418 -0.00316595 0.0013915 0.00607785
20 2 3.529 6.86616 2.39481 0.0179564 -0.0180269 0.0173822
21 2 12.3524 8.69871 10.7187 0.00540931 -0.0337759 0.0302998
22 1 9.75964 10.1759 11.6694 0.00154437 0.00483511 0.00126919
23 2 9.72908 10.1603 2.75352 -0.022064 -0.0084804 -0.00254085
24 2 9.28664 9.31541 11.5496 -0.00223809 -0.00757305 0.023706
25 1 3.11971 8.48504 5.72127 -0.00501452 -0.00222818 -0.00175085
26 2 3.33668 9.45612 5.90517 -0.00340549 -0.00144658 0.00596319
27 2 4.71563 5.35307 3.67495 -0.0263339 -0.0122702 -0.00812419
28 1 10.1633 7.11207 3.82001 0.00136748 -0.0047109 -0.0011696
29 2 10.142 6.10206 3.98419 -0.000898224 -0.0129692 -5.44439e-05
30 2 9.67635 7.48454 4.525 0.00943711 -0.00340604 0.00949121
31 1 3.48154 11.0275 5.82849 -0.00113735 -0.000662017 -0.00345529
32 2 12.5726 12.9159 5.94772 -0.01863 0.0171851 0.0238074
33 2 3.91508 11.206 4.92976 -0.00182145 -0.00890473 -0.009715
34 1 8.52107 5.07942 8.54148 -0.00171222 -0.00687376 -0.00282468
35 2 8.8198 4.14322 8.71133 0.0232109 0.0183116 -0.0150108
36 2 7.87113 5.19672 9.22062 -0.00712965 -0.021253 -0.0185679
37 1 7.66892 11.5692 10.8053 -0.000504358 -0.00781254 -0.00547686
38 2 8.47658 11.4943 9.39042 -0.00213917 -0.0172028 0.00441386
39 2 8.48405 11.0814 11.1836 0.0346238 -0.000400404 -0.0140164
40 1 12.3119 4.03692 5.88597 -2.31351e-05 0.00521967 0.00149542
41 2 3.95122 4.81143 4.88384 -0.00176916 -0.0209675 0.0231205
42 2 11.5358 4.06377 5.25908 0.0101535 -0.0259242 -0.0118363
43 1 4.83113 5.10792 4.61142 0.0019187 0.00297502 -0.0012952
44 2 3.20542 8.58855 3.52831 -0.0144296 -0.023771 0.0163616
45 2 6.65785 4.1435 3.97472 0.00186723 -0.0148331 0.00996596
46 1 8.82369 11.9191 8.53681 -0.000513373 0.00412658 -0.00163734
47 2 7.86814 11.7208 7.31351 -0.00237187 0.00983234 0.0169857
48 2 9.68975 11.6507 8.30415 -0.0269624 -0.00582628 -0.0109377
49 1 10.3958 6.97788 9.21146 -0.00178838 -0.000293357 -0.000185808
50 2 9.99992 6.1083 9.09329 -0.0115851 -0.000148458 2.12397e-05
51 2 9.74565 7.32207 9.88583 -0.0176794 0.00200353 -0.0299972
52 1 9.19426 10.019 4.69887 0.00337322 -0.000869032 -0.00681205
53 2 9.87182 9.6245 5.27442 -0.0064981 -0.0132825 0.0140258
54 2 8.63094 10.3924 5.36316 0.0121231 -0.00529042 0.00708291
55 1 4.8873 11.65 3.36112 -0.00410281 -0.0047996 0.0025726
56 2 5.18935 10.7448 3.20018 -0.00662536 0.00567692 0.0183126
57 2 4.38779 11.8576 2.55128 -0.0190052 0.0132632 -0.0245041
58 1 5.98872 9.9163 9.5662 -0.00280165 0.00171751 -0.00458636
59 2 4.88891 12.6473 7.77967 -0.00655005 -0.0345686 -0.0104627
60 2 7.10215 10.7849 10.4745 0.0222558 0.0100943 0.0128903
61 1 7.65994 4.61516 5.98853 -0.000487052 0.00678591 0.012254
62 2 8.12645 4.9486 6.75945 -0.0293247 -0.000135799 0.0106574
63 2 6.76526 5.03687 6.05451 0.000748655 -0.0046672 -0.0271656
64 1 5.07375 11.7454 7.77448 0.00452999 -0.00410086 -0.00538006
65 2 4.26925 11.286 6.54614 0.0365594 -0.00603513 -0.00441849
66 2 3.37875 4.53675 7.43424 0.0181051 0.0271742 0.0281949
67 1 11.4576 11.1191 8.05444 0.00379595 0.0101449 0.000380797
68 2 12.2164 11.0401 7.49515 -0.00382882 -0.0301456 -0.00401087
69 2 11.7668 10.6027 8.8881 0.0055971 0.0127411 -0.00826995
70 1 9.96374 4.37804 4.08274 -0.00123782 0.00201397 -0.00113541
71 2 9.96718 13.8098 3.19901 -0.00294565 0.0122461 0.00501774
72 2 9.0187 4.22732 4.26032 6.41166e-07 -0.0171409 -0.0147371
73 1 10.4859 7.62029 6.38912 0.00403289 0.0039137 0.00279105
74 2 10.4027 7.32551 7.33406 0.00787737 -0.0129747 -0.0210963
75 2 11.4398 7.84375 6.24063 -0.00528397 0.00771228 0.0243967
76 1 12.702 5.38919 10.2784 0.00101695 -0.000439214 0.000534954
77 2 12.0881 5.94852 9.74476 -0.00739583 -0.0192896 -0.0187846
78 2 4.0031 5.53009 11.5328 -0.000164769 -0.0136386 0.0316206
79 1 12.3758 8.89222 9.75534 -0.00726315 -0.00431036 -0.00254487
80 2 11.5082 8.49597 9.46997 -0.0106527 -0.00386841 0.0178207
81 2 5.47447 10.5757 9.08046 0.00466982 0.0222009 -0.00872401
82 1 7.06867 5.37471 10.9515 0.00189929 0.000784075 -0.00261459
83 2 7.13656 4.64222 11.5899 -0.0187145 -5.8368e-06 -0.0185049
84 2 6.24795 5.66996 11.3841 -0.0150998 -0.0315776 -0.0065588
85 1 10.5344 13.2786 11.24 -0.000740653 0.000332595 0.00698328
86 2 10.0403 12.682 10.699 -0.0154678 -0.0065512 -1.21996e-05
87 2 12.1656 4.70987 10.6287 0.0111265 0.0256612 -0.011262
88 1 7.23254 11.8548 6.42468 0.00162272 -0.00576683 -1.84406e-05
89 2 6.08534 11.7397 6.97238 -0.0189968 0.00502382 0.00716557
90 2 7.33615 12.8978 6.24976 0.00906906 -0.00224479 0.00376321
91 1 5.37346 6.88624 6.4065 0.00123919 -0.000391354 0.00332018
92 2 3.9477 8.04095 5.98922 0.0111512 0.00696366 -0.0100739
93 2 5.14322 6.18444 7.01609 0.00618041 0.00156251 -0.00559224
94 1 4.13669 4.58888 8.04788 0.00193236 0.00470605 0.00297006
95 2 3.75476 4.76605 8.92244 0.0100834 0.00851225 0.00849981
96 2 5.56859 6.41439 5.54191 -9.43117e-05 0.00812521 -0.00752974
ITEM: TIMESTEP
2
ITEM: NUMBER OF ATOMS
96
ITEM: BOX BOUNDS pp pp pp
2.9236100000000000e+00 1.2773600000000000e+01
4.0306300000000004e+00 1.3880599999999999e+01
2.1372399999999998e+00 1.1987200000000000e+01
ITEM: ATOMS id type x y z vx vy vz
1 1 7.03094 13.387 3.3777 -0.00301897 0.000773123 0.00313043
2 2 6.56302 12.5443 3.39644 0.00347377 -0.0169796 -0.0111239
3 2 11.4676 12.9727 11.2362 0.00367762 0.0101811 -0.0206572
4 1 3.59484 11.9114 10.8157 0.00597007 0.0019813 0.00395693
5 2 3.70251 10.9378 10.7144 0.0248859 -0.018252 -0.0187125
6 2 3.8954 12.1598 9.93076 0.0119979 -0.00259826 0.00184302
7 1 12.5911 8.26524 2.68231 0.00300485 -0.00313645 0.00726239
8 2 11.7693 8.00441 3.1259 -0.0440136 -0.0241403 0.0082932
9 2 8.36182 7.86995 8.32293 -0.0154925 -0.0128505 -0.00923238
10 1 7.69517 8.37291 7.91742 0.000712505 0.00406873 3.12859e-05
11 2 7.07678 7.69412 7.64469 0.022871 -0.0267823 0.00714609
12 2 6.54956 9.44885 8.95191 0.0353932 0.00766118 -0.0159937
13 1 5.91956 9.14271 2.7576 0.000526014 0.00546577 -0.0112544
14 2 5.96264 9.09262 11.6023 -0.0044725 -0.0218918 0.000517808
15 2 5.3493 8.343 2.82873 0.013824 0.016533 0.00872776
16 1 8.81352 7.48656 11.3568 -0.00355115 0.00273074 -0.00400446
17 2 9.20186 7.25009 2.43412 -0.0106121 0.0165242 0.0152594
18 2 8.08721 6.86998 11.106 0.00236786 0.0132167 -0.000581319
19 1 4.3448 6.21759 2.31718 -0.00329273 0.00157203 0.00592402
20 2 3.53908 6.85672 2.4037 0.0214609 -0.0191303 0.0181601
21 2 12.3557 8.68218 10.7332 0.00775408 -0.0320007 0.026382
22 1 9.76038 10.1782 11.67 0.00140991 0.00450919 0.000989396
23 2 9.71849 10.1573 2.75456 -0.0201337 -0.0028941 0.00685178
24 2 9.28574 9.3115 11.5602 -0.00124151 -0.0079159 0.0182612
25 1 3.11727 8.48387 5.72038 -0.00474987 -0.0024439 -0.00180359
26 2 3.3344 9.45592 5.90814 -0.00577401 0.000766635 0.00586413
27 2 4.70262 5.34758 3.66952 -0.0257211 -0.00984271 -0.0131143
28 1 10.164 7.10961 3.81932 0.00139623 -0.00515074 -0.00159094
29 2 10.1416 6.09609 3.98404 -0.000680596 -0.0107394 -0.000585266
30 2 9.6807 7.48365 4.53133 0.00817208 -0.000279717 0.0155905
31 1 3.48105 11.0273 5.82669 -0.0007525 -0.000124843 -0.00370774
32 2 12.5626 12.926 5.95925 -0.0212222 0.0224716 0.0224458
33 2 3.91372 11.2013 4.92586 -0.00375292 -0.00987242 -0.0056885
34 1 8.5203 5.0759 8.54006 -0.00138595 -0.00714965 -0.00291393
35 2 8.8311 4.15319 8.70335 0.0221134 0.0208374 -0.0166636
36 2 7.86679 5.18642 9.21206 -0.0104696 -0.0200193 -0.0153593
37 1 7.66868 11.5652 10.8025 -0.000409577 -0.0081435 -0.00551656
38 2 8.47548 11.4854 9.39301 -0.00217454 -0.0183546 0.00554292
39 2 8.50157 11.0819 11.1774 0.0350798 0.00232368 -0.01109
40 1 12.3119 4.03945 5.88667 -0.000106975 0.00492095 0.00128048
41 2 3.94989 4.80065 4.89637 -0.00280813 -0.0218602 0.0266993
42 2 11.5419 4.05056 5.2541 0.0138943 -0.0266356 -0.00812629
43 1 4.83213 5.10936 4.61086 0.00203056 0.0027605 -0.000945933
44 2 3.19806 8.57631 3.53496 -0.0149555 -0.0251009 0.0103802
45 2 6.65773 4.13632 3.98092 -0.00247569 -0.0138511 0.0149196
46 1 8.82336 11.9213 8.53596 -0.000853381 0.00466328 -0.00169431
47 2 7.86651 11.7256 7.32155 -0.00431855 0.00929779 0.0149007
48 2 9.67827 11.6466 8.29854 -0.0184874 -0.0107301 -0.0117008
49 1 10.3948 6.97774 9.21138 -0.00197335 -0.000285087 -0.000132977
50 2 9.99431 6.10686 9.09213 -0.0106249 -0.00540229 -0.0046058
51 2 9.73733 7.32423 9.8714 -0.0156892 0.00681453 -0.027572
52 1 9.196 10.0185 4.69553 0.00361515 -0.000965369 -0.0065226
53 2 9.86808 9.61782 5.28081 -0.00858008 -0.0133489 0.0111352
54 2 8.63655 10.3901 5.36653 0.0102821 -0.00402152 0.0061765
55 1 4.88523 11.6476 3.36246 -0.00421582 -0.00473866 0.00274845
56 2 5.18693 10.7464 3.20957 -0.00312194 0.00061674 0.0189497
57 2 4.37775 11.8651 2.53845 -0.0203694 0.0161398 -0.0258508
58 1 5.98729 9.91714 9.56407 -0.00291329 0.00162686 -0.00400476
59 2 4.88497 12.6317 7.77478 -0.00954557 -0.0263276 -0.00904788
60 2 7.11257 10.7908 10.4809 0.0187982 0.0124803 0.01253
61 1 7.6596 4.61857 5.99459 -0.000848089 0.00679158 0.011945
62 2 8.11233 4.94864 6.76578 -0.0268943 0.000614378 0.0151823
63 2 6.76607 5.03425 6.04072 0.00213545 -0.00558916 -0.027862
64 1 5.07606 11.7433 7.77172 0.00470741 -0.00448787 -0.00564982
65 2 4.28675 11.2827 6.5438 0.0326508 -0.00734592 -0.00553066
66 2 3.38791 4.55028 7.44802 0.0176431 0.0268657 0.0261553
67 1 11.4595 11.1241 8.0548 0.00391008 0.00985567 0.00102713
68 2 12.2148 11.0252 7.49244 -0.00284805 -0.0296437 -0.00697799
69 2 11.7688 10.6099 8.88219 0.00240768 0.0160504 -0.0149236
70 1 9.96307 4.37901 4.08213 -0.00144605 0.00187342 -0.00128027
71 2 9.96665 13.8161 3.20129 0.000972933 0.0130462 0.00363537
72 2 9.01874 4.21912 4.25389 2.74529e-05 -0.0155741 -0.0108093
73 1 10.4879 7.62223 6.39058 0.00391508 0.00388244 0.00302383
74 2 10.4069 7.31942 7.32266 0.00854011 -0.0116763 -0.0236488
75 2 11.437 7.84759 6.25288 -0.0053649 0.00779605 0.0242929
76 1 12.7025 5.38903 10.2786 0.00107037 -0.000153554 0.00021826
77 2 12.0843 5.93884 9.73592 -0.00752363 -0.019368 -0.0165688
78 2 4.00365 5.52346 11.5489 0.00208429 -0.0130423 0.0325943
79 1 12.372 8.89006 9.7541 -0.00766088 -0.00437331 -0.00232047
80 2 11.504 8.4943 9.47866 -0.00594742 -0.00280296 0.0167904
81 2 5.47653 10.5875 9.07521 0.00408463 0.024479 -0.0118918
82 1 7.06954 5.3751 10.9503 0.00156833 0.000820817 -0.00229379
83 2 7.12934 4.64057 11.5803 -0.00938864 -0.00767778 -0.019322
84 2 6.23941 5.65613 11.3796 -0.0196178 -0.0228989 -0.0113404
85 1 10.5341 13.2788 11.2435 -0.000452671 0.000505087 0.00704513
86 2 10.0328 12.6781 10.6989 -0.0140034 -0.00826287 8.22509e-05
87 2 12.1698 4.72174 10.6234 0.00539501 0.0209212 -0.0093021
88 1 7.2335 11.8519 6.4246 0.00221903 -0.00583418 -0.000263246
89 2 6.07387 11.7423 6.978 -0.026294 0.00545171 0.0149771
90 2 7.34052 12.897 6.25158 0.00830686 -0.00169671 0.00349712
91 1 5.37412 6.88606 6.40813 0.00142005 -0.000328873 0.0031937
92 2 3.95334 8.04329 5.98425 0.0110865 0.00244943 -0.00989622
93 2 5.14583 6.18489 7.01353 0.0042138 4.46581e-05 -0.00450553
94 1 4.13769 4.59121 8.04931 0.00214228 0.0046229 0.00280543
95 2 3.75981 4.77043 8.92723 0.0102098 0.00900693 0.010687
96 2 5.5679 6.41871 5.53868 -0.00271766 0.00913108 -0.00526714
ITEM: TIMESTEP
3
ITEM: NUMBER OF ATOMS
96
ITEM: BOX BOUNDS pp pp pp
2.9236100000000000e+00 1.2773600000000000e+01
4.0306300000000004e+00 1.3880599999999999e+01
2.1372399999999998e+00 1.1987200000000000e+01
ITEM: ATOMS id type x y z vx vy vz
1 1 7.02955 13.3874 3.37918 -0.0025872 0.000678049 0.00279599
2 2 6.56399 12.5359 3.39122 0.000580821 -0.0160887 -0.00971627
3 2 11.4682 12.9774 11.2255 -0.00150285 0.00835364 -0.0221518
4 1 3.59782 11.9123 10.8176 0.00598677 0.00162713 0.00369145
5 2 3.7146 10.9297 10.7053 0.0233113 -0.0134191 -0.0177409
6 2 3.90141 12.1586 9.93215 0.0120204 -0.00193564 0.00382922
7 1 12.5927 8.26373 2.68611 0.00305741 -0.00291916 0.00796454
8 2 11.7467 7.99187 3.12937 -0.0450723 -0.0254417 0.00482548
9 2 8.35512 7.86282 8.31878 -0.0108762 -0.0155223 -0.00709389
10 1 7.69546 8.37498 7.91743 0.000431026 0.00420217 -1.21414e-05
11 2 7.08804 7.68081 7.64794 0.0219342 -0.0260354 0.00572131
12 2 6.56794 9.45215 8.94279 0.0372485 0.00620443 -0.0196457
13 1 5.91975 9.14532 2.7518 0.000245552 0.00499196 -0.01188
14 2 5.96075 9.0826 11.6045 -0.00306046 -0.0181216 0.00769914
15 2 5.3568 8.35227 2.83365 0.0157312 0.0199444 0.010979
16 1 8.81174 7.48794 11.3549 -0.00352327 0.00280881 -0.00387816
17 2 9.19603 7.25819 2.44075 -0.0128051 0.0158976 0.0109784
18 2 8.08871 6.87617 11.1066 0.00333442 0.0112676 0.00280022
19 1 4.34314 6.21841 2.3201 -0.00327493 0.00168642 0.00578994
20 2 3.55046 6.84703 2.41297 0.0231066 -0.0190105 0.0189436
21 2 12.3602 8.66671 10.7451 0.0102012 -0.0295896 0.0200688
22 1 9.76105 10.1804 11.6704 0.00124099 0.00412564 0.000751616
23 2 9.70894 10.1574 2.76038 -0.0179662 0.00325469 0.0159581
24 2 9.28539 9.30749 11.5679 3.51384e-05 -0.00777104 0.0122703
25 1 3.11496 8.4826 5.71947 -0.00441985 -0.00265018 -0.00184082
26 2 3.3309 9.45688 5.91103 -0.00828481 0.00299957 0.0056456
27 2 4.68991 5.34323 3.66184 -0.0251231 -0.00779819 -0.0168445
28 1 10.1647 7.10692 3.81842 0.00139088 -0.00557461 -0.00197507
29 2 10.1413 6.09132 3.9836 -0.000495621 -0.00825074 -0.00116165
30 2 9.68452 7.48426 4.54059 0.00746688 0.00240822 0.0209868
31 1 3.48078 11.0274 5.82478 -0.000293267 0.000401888 -0.0039176
32 2 12.5514 12.9384 5.97016 -0.0229967 0.0262798 0.0214217
33 2 3.91133 11.1961 4.92407 -0.00580548 -0.0107985 -0.0015491
34 1 8.51969 5.07227 8.53857 -0.00105616 -0.00730911 -0.00304411
35 2 8.84191 4.16406 8.69466 0.021295 0.0217849 -0.0178319
36 2 7.86066 5.1767 9.20526 -0.0141294 -0.0189873 -0.0116838
37 1 7.66851 11.561 10.7998 -0.000185964 -0.00837471 -0.00549957
38 2 8.4744 11.476 9.39597 -0.00200543 -0.0190263 0.0057792
39 2 8.51913 11.0838 11.1725 0.0347439 0.00513012 -0.0083773
40 1 12.3118 4.04184 5.88725 -0.000205745 0.00468112 0.00105339
41 2 3.94841 4.78957 4.91054 -0.00232741 -0.0221247 0.0295836
42 2 11.5497 4.03713 5.25096 0.0171579 -0.0267611 -0.00465778
43 1 4.83316 5.11068 4.61048 0.00204996 0.00252954 -0.000613967
44 2 3.19047 8.56345 3.53869 -0.0152652 -0.0261432 0.00488411
45 2 6.65537 4.12965 3.98964 -0.00693156 -0.0129487 0.0198896
46 1 8.82284 11.9238 8.53511 -0.0012354 0.00518979 -0.0016729
47 2 7.86382 11.7301 7.32841 -0.00659719 0.00853275 0.0122843
48 2 9.67127 11.6399 8.29245 -0.00946708 -0.0158509 -0.0127285
49 1 10.3938 6.97759 9.21133 -0.00217335 -0.000328227 -0.000100471
50 2 9.98929 6.1029 9.08868 -0.00927438 -0.00997027 -0.00905113
51 2 9.72996 7.32888 9.85826 -0.0138042 0.011748 -0.024965
52 1 9.19787 10.018 4.69235 0.0038677 -0.0010738 -0.0061558
53 2 9.86324 9.61115 5.28555 -0.0108121 -0.013279 0.00757709
54 2 8.64122 10.3884 5.36934 0.00837219 -0.00270336 0.0048086
55 1 4.88308 11.6453 3.36387 -0.00440751 -0.00459186 0.00281927
56 2 5.18623 10.7454 3.21913 9.2105e-05 -0.00445481 0.0189646
57 2 4.36742 11.8737 2.52543 -0.02018 0.0177289 -0.025239
58 1 5.98581 9.91793 9.5622 -0.00298338 0.00152692 -0.00357615
59 2 4.87937 12.6209 7.77062 -0.0131438 -0.0160227 -0.00749322
60 2 7.12095 10.7974 10.487 0.0141705 0.0130582 0.0116984
61 1 7.65909 4.62195 6.00048 -0.00119815 0.00672369 0.0115528
62 2 8.09956 4.94921 6.77463 -0.0240513 0.00187828 0.0205719
63 2 6.7674 5.03128 6.02664 0.00281458 -0.00609286 -0.0283535
64 1 5.07846 11.7409 7.76883 0.00489116 -0.00497743 -0.005887
65 2 4.3019 11.2786 6.54061 0.0272385 -0.00908054 -0.00778943
66 2 3.3964 4.56362 7.4604 0.0155286 0.0264345 0.0226578
67 1 11.4615 11.129 8.05547 0.00403241 0.00958669 0.00161073
68 2 12.2136 11.0105 7.48818 -0.00206408 -0.0289581 -0.0100986
69 2 11.7692 10.6188 8.87317 -0.000712343 0.0188944 -0.0204805
70 1 9.9623 4.37992 4.08146 -0.00165903 0.00174929 -0.00138412
71 2 9.96816 13.8228 3.20264 0.00511863 0.0135162 0.0013748
72 2 9.01873 4.21174 4.24951 -0.000163178 -0.0138707 -0.00662428
73 1 10.4899 7.62417 6.39214 0.00375235 0.00386639 0.00317388
74 2 10.4112 7.31383 7.31041 0.00862954 -0.0109873 -0.0244253
75 2 11.4345 7.85155 6.26493 -0.00434427 0.00820502 0.0236256
76 1 12.7031 5.38904 10.2787 0.00116651 0.00022297 -0.000141577
77 2 12.0806 5.92915 9.72819 -0.00726623 -0.019304 -0.014321
78 2 4.00518 5.51705 11.5654 0.00374234 -0.0128376 0.0328312
79 1 12.3681 8.88785 9.75302 -0.00803795 -0.00447428 -0.00191192
80 2 11.5022 8.49316 9.48676 -0.00161295 -0.00185088 0.015451
81 2 5.47855 10.6001 9.06857 0.00456828 0.0252708 -0.0141351
82 1 7.07024 5.37553 10.9492 0.0011928 0.000874727 -0.00198493
83 2 7.12717 4.63454 11.5705 0.000461181 -0.0160252 -0.0197309
84 2 6.22833 5.64706 11.3727 -0.0239139 -0.0138825 -0.0163978
85 1 10.5339 13.2791 11.247 -0.000199584 0.00061356 0.00704597
86 2 10.0263 12.6737 10.6991 -0.0117786 -0.00903934 0.000951822
87 2 12.171 4.73079 10.6194 -0.0011748 0.0146499 -0.00646472
88 1 7.23476 11.849 6.42441 0.00282523 -0.00582449 -0.000468971
89 2 6.05905 11.7451 6.98736 -0.0323915 0.00572358 0.0221228
90 2 7.34446 12.8961 6.25325 0.0073553 -0.00197809 0.00314784
91 1 5.37488 6.88591 6.40969 0.0016047 -0.000241268 0.00303422
92 2 3.95879 8.0434 5.97932 0.0103459 -0.00185412 -0.00990649
93 2 5.14743 6.18448 7.01159 0.00214747 -0.00184369 -0.00315613
94 1 4.13883 4.5935 8.05068 0.00244766 0.00455254 0.00274155
95 2 3.76497 4.77506 8.93313 0.0105203 0.00946956 0.0128461
96 2 5.56587 6.42352 5.53664 -0.00540099 0.010047 -0.00288876
ITEM: TIMESTEP
4
ITEM: NUMBER OF ATOMS
96
ITEM: BOX BOUNDS pp pp pp
2.9236100000000000e+00 1.2773600000000000e+01
4.0306300000000004e+00 1.3880599999999999e+01
2.1372399999999998e+00 1.1987200000000000e+01
ITEM: ATOMS id type x y z vx vy vz
1 1 7.02836 13.3877 3.38049 -0.00220227 0.000543059 0.00247286
2 2 6.5636 12.5282 3.38673 -0.00190875 -0.0141862 -0.00826357
3 2 11.4661 12.9811 11.2141 -0.00655507 0.00651526 -0.0235014
4 1 3.60082 11.913 10.8194 0.00603106 0.00117633 0.00341083
5 2 3.72582 10.9244 10.6967 0.0214525 -0.00735059 -0.0163019
6 2 3.90742 12.1579 9.93458 0.0120274 -0.000977044 0.00591628
7 1 12.5942 8.26232 2.69028 0.00287753 -0.00278393 0.00869945
8 2 11.7243 7.97897 3.13072 -0.04309 -0.0256832 -2.97533e-05
9 2 8.35095 7.85443 8.31583 -0.0055517 -0.0177235 -0.00457314
10 1 7.6956 8.37711 7.91741 0.000126015 0.00426923 -5.63142e-05
11 2 7.09872 7.66808 7.65041 0.0205779 -0.0244972 0.00407301
12 2 6.58681 9.45506 8.93227 0.0372924 0.00608965 -0.0215514
13 1 5.91981 9.1477 2.74572 2.81436e-05 0.00460503 -0.0124049
14 2 5.95958 9.07449 11.61 -0.00156981 -0.0142787 0.0131923
15 2 5.36503 8.36294 2.83971 0.016577 0.0219348 0.0133704
16 1 8.80999 7.48937 11.353 -0.00344188 0.00292245 -0.00370315
17 2 9.18905 7.26599 2.4451 -0.0150774 0.0152749 0.0062707
18 2 8.09054 6.88125 11.1088 0.00364223 0.00881107 0.0059638
19 1 4.34153 6.21928 2.32297 -0.00309735 0.00173512 0.00567169
20 2 3.56218 6.83771 2.42265 0.0227477 -0.0175964 0.0197754
21 2 12.3659 8.65259 10.7533 0.0126641 -0.0266551 0.0119887
22 1 9.76163 10.1824 11.6707 0.00103588 0.00368941 0.000605789
23 2 9.70052 10.1606 2.77052 -0.0157276 0.0095839 0.0236088
24 2 9.28578 9.30373 11.5725 0.00172932 -0.00687436 0.00617876
25 1 3.11285 8.48122 5.71854 -0.00402882 -0.00284843 -0.00186239
26 2 3.32612 9.45892 5.91379 -0.0108332 0.00493249 0.0053185
27 2 4.67749 5.33978 3.65267 -0.0245428 -0.00625874 -0.018906
28 1 10.1654 7.10403 3.81735 0.00133891 -0.00595966 -0.0022978
29 2 10.1411 6.08784 3.98287 -0.000348608 -0.00562722 -0.0017398
30 2 9.68816 7.48606 4.55232 0.00757454 0.00443359 0.0253018
31 1 3.48076 11.0277 5.82278 0.000216726 0.000912406 -0.00407262
32 2 12.5396 12.9523 5.98067 -0.0238602 0.0282457 0.020843
33 2 3.90791 11.1905 4.92432 -0.00778384 -0.0116119 0.00228869
34 1 8.51924 5.06859 8.53701 -0.000746481 -0.00733837 -0.00319676
35 2 8.8524 4.17498 8.68552 0.0208165 0.0210277 -0.018486
36 2 7.85266 5.16743 9.20038 -0.0177632 -0.0182418 -0.0078608
37 1 7.66849 11.5568 10.797 0.000159354 -0.00849797 -0.00543211
38 2 8.47348 11.4664 9.39879 -0.00158141 -0.0191229 0.00501458
39 2 8.53632 11.087 11.169 0.0335819 0.00786053 -0.00589415
40 1 12.3117 4.04413 5.88772 -0.000306267 0.00452467 0.000827243
41 2 3.94756 4.77853 4.92595 -0.00028948 -0.0216806 0.031595
42 2 11.559 13.8738 5.24945 0.0196457 -0.0262851 -0.0017117
43 1 4.83418 5.11188 4.61025 0.00197533 0.00228239 -0.000311601
44 2 3.1828 8.55017 3.53985 -0.0151889 -0.0267828 0.000244118
45 2 6.6508 4.12337 4.00081 -0.011233 -0.0124137 0.0244804
46 1 8.82212 11.9265 8.53429 -0.00160837 0.00568081 -0.00158438
47 2 7.85991 11.7342 7.33383 -0.00913958 0.00754804 0.00915566
48 2 9.6688 11.6307 8.28581 -0.000793406 -0.020885 -0.0137657
49 1 10.3926 6.97741 9.21128 -0.00239667 -0.000433247 -8.67907e-05
50 2 9.98504 6.09689 9.08308 -0.00756812 -0.0133714 -0.0130935
51 2 9.72353 7.33598 9.84644 -0.011937 0.016449 -0.0223857
52 1 9.19987 10.0175 4.68937 0.00411592 -0.00118501 -0.00573332
53 2 9.85727 9.60454 5.28838 -0.0129942 -0.0131763 0.00359596
54 2 8.64493 10.3874 5.37134 0.00645202 -0.00136185 0.00300262
55 1 4.88082 11.643 3.36528 -0.00466222 -0.00438712 0.00278626
56 2 5.18703 10.7419 3.22854 0.00281029 -0.00902725 0.018373
57 2 4.35757 11.8828 2.51321 -0.0184524 0.0179561 -0.0227343
58 1 5.9843 9.91866 9.5605 -0.00299896 0.00141968 -0.00332152
59 2 4.87183 12.6157 7.76728 -0.0171775 -0.00456454 -0.00580022
60 2 7.12674 10.8039 10.4926 0.0085413 0.0118225 0.0104679
61 1 7.6584 4.62529 6.00615 -0.00151748 0.00659378 0.0111071
62 2 8.08827 4.95052 6.78635 -0.0211359 0.00346867 0.0263884
63 2 6.76888 5.02816 6.01237 0.0028141 -0.00617326 -0.0286394
64 1 5.08095 11.7383 7.76583 0.005069 -0.00550503 -0.00608309
65 2 4.31399 11.2736 6.53601 0.0204356 -0.0112226 -0.0111217
66 2 3.40343 4.57672 7.47068 0.0119719 0.025947 0.0179599
67 1 11.4635 11.1337 8.05641 0.00415807 0.00935614 0.00209094
68 2 12.2127 10.9962 7.48234 -0.00167231 -0.0280776 -0.0131455
69 2 11.7681 10.6288 8.86171 -0.00354301 0.0210038 -0.0245052
70 1 9.96141 4.38076 4.08075 -0.00187556 0.0016391 -0.00145189
71 2 9.97177 13.8297 3.20266 0.00936842 0.0137222 -0.00157365
72 2 9.01858 4.20525 4.24727 -0.000484593 -0.0120788 -0.00232488
73 1 10.4917 7.6261 6.39375 0.00355153 0.0038711 0.00323198
74 2 10.4155 7.30843 7.29824 0.00813428 -0.0109926 -0.0233318
75 2 11.4327 7.8558 6.2765 -0.00229542 0.00894571 0.0224243
76 1 12.7037 5.38925 10.2785 0.0012771 0.000648329 -0.000526124
77 2 12.077 5.91954 9.72159 -0.00665109 -0.0190595 -0.0120736
78 2 4.00739 5.51062 11.5818 0.00473425 -0.013077 0.0322825
79 1 12.364 8.88559 9.75218 -0.00836691 -0.00459766 -0.00135547
80 2 11.5024 8.49245 9.49411 0.0020135 -0.00116257 0.0137541