#     Step Nr.          Time[fs]        Kin.[a.u.]          Temp[K]            Pot.[a.u.]        Cons Qty[a.u.]        UsedTime[s]
         0            0.000000         0.272187779       300.000000000     -1103.964760516     -1103.692572738         0.000000000
         1            0.500000         0.263800260       290.755442692     -1103.955481143     -1103.691680883      1640.726604000
         2            1.000000         0.246194167       271.350353725     -1103.937245991     -1103.691051824       227.595693000
         3            1.500000         0.228606853       251.965963548     -1103.919053850     -1103.690446997       230.311533000
