     192
 i =        0, time =        0.000, E =     -1103.9647605165
  O         0.0002821127       -0.0001724328       -0.0000576946
  O         0.0000970398       -0.0000724680       -0.0000959544
  O        -0.0000784496       -0.0001208093       -0.0001905491
  O         0.0003663153       -0.0002661671        0.0001263828
  O         0.0003407569       -0.0001347180        0.0000448818
  O         0.0001123887       -0.0001273285        0.0002478771
  O        -0.0000030488       -0.0001246845        0.0001525107
  O        -0.0002836478       -0.0002112851       -0.0001469830
  O        -0.0002174164        0.0001809488       -0.0001795075
  O        -0.0000418782        0.0003791812       -0.0001273984
  O        -0.0000833862        0.0003102855       -0.0001314079
  O         0.0001314937       -0.0000571278        0.0002249671
  O        -0.0000022246        0.0000726907       -0.0002291200
  O        -0.0001363319       -0.0000396441        0.0001627745
  O        -0.0000292194        0.0003364718        0.0000013975
  O         0.0003581450        0.0001151393        0.0000491392
  O        -0.0000205319       -0.0002675875        0.0002009311
  O        -0.0000652687        0.0000805363        0.0000632982
  O         0.0001018455        0.0000080031       -0.0000452261
  O        -0.0001281459        0.0001704110        0.0000838529
  O         0.0001045340       -0.0000183514        0.0003782079
  O        -0.0002154680        0.0000071309       -0.0000862519
  O         0.0002679967        0.0000085071       -0.0001125179
  O        -0.0005221006       -0.0000440988        0.0000220989
  O        -0.0002029834        0.0001524640       -0.0001251771
  O         0.0002703766        0.0001899882        0.0002351813
  O         0.0000923290       -0.0002794436        0.0000821857
  O         0.0000594320        0.0000146323       -0.0000023249
  O        -0.0003164649       -0.0000391449        0.0001054799
  O        -0.0002428295        0.0000105576       -0.0000795292
  O        -0.0000225563        0.0002409237        0.0001641572
  O        -0.0001329923        0.0001139838        0.0001802781
  O         0.0003753924        0.0002133917        0.0002159095
  O         0.0000582743       -0.0001716168       -0.0001439815
  O         0.0003458274        0.0001348534       -0.0001329284
  O        -0.0002371044       -0.0002008370        0.0000216513
  O        -0.0003260361        0.0001566369       -0.0000939959
  O        -0.0000931072        0.0003343462        0.0000897062
  O        -0.0000015762       -0.0000535451       -0.0000172126
  O        -0.0002823006       -0.0000077820        0.0000164241
  O         0.0000283129        0.0000262256       -0.0003069037
  O        -0.0001013086       -0.0001972255       -0.0001130314
  O        -0.0001089105       -0.0000852893       -0.0000852445
  O         0.0000439679       -0.0001153548       -0.0000270299
  O        -0.0003137643       -0.0003061099       -0.0000241154
  O        -0.0000560339       -0.0000946989       -0.0001919427
  O         0.0001072628        0.0000493081       -0.0003913857
  O         0.0000827858        0.0002746341       -0.0000112713
  O        -0.0002924881       -0.0000462001       -0.0000807234
  O         0.0001132067       -0.0000909162        0.0000498008
  O         0.0001005529       -0.0000093907       -0.0000195585
  O         0.0002056694       -0.0001882323        0.0002030212
  O         0.0000928173        0.0003914898        0.0001771327
  O         0.0000064991        0.0000222151        0.0000309301
  O        -0.0002954789       -0.0000519337       -0.0003271947
  O        -0.0001610296       -0.0001748298       -0.0000501030
  O         0.0002242371       -0.0000379107       -0.0001119394
  O         0.0003282786       -0.0000859943        0.0002385626
  O         0.0000349563       -0.0000222959        0.0002468450
  O         0.0000525462       -0.0000841069       -0.0000804104
  O        -0.0000982977        0.0001296806        0.0001905405
  O         0.0000846017       -0.0002023972        0.0000136937
  O        -0.0000411040        0.0000336148       -0.0000813744
  O         0.0001810152       -0.0001500119        0.0001358703
  H        -0.0006955709        0.0006934787       -0.0010131210
  H         0.0000848621       -0.0006145920        0.0009864990
  H        -0.0005499805        0.0005723126        0.0009327581
  H         0.0009163340        0.0005420156        0.0011941919
  H         0.0003803056        0.0001849290        0.0001358191
  H         0.0007398353        0.0002292733       -0.0017305600
  H         0.0005390652        0.0007085315        0.0016605228
  H        -0.0000630296       -0.0006803584       -0.0003833443
  H         0.0004548143       -0.0012993174        0.0004897048
  H        -0.0004860796        0.0010594375       -0.0005941021
  H        -0.0006367513       -0.0004427347       -0.0003470190
  H        -0.0005883727       -0.0013559148       -0.0002764752
  H        -0.0007250952       -0.0010889051        0.0013623109
  H        -0.0004496359        0.0000691875       -0.0010821097
  H         0.0002745182       -0.0002220351       -0.0008740981
  H         0.0001312971        0.0015235982       -0.0004086928
  H        -0.0003816490        0.0006426557        0.0014341303
  H        -0.0014415548        0.0003095877       -0.0007391137
  H        -0.0001161496       -0.0012905187       -0.0000318574
  H        -0.0004625188        0.0008727955        0.0006295426
  H        -0.0007663457       -0.0002913701       -0.0003942380
  H        -0.0002981099        0.0003668153        0.0007149154
  H        -0.0000963039        0.0011762391       -0.0001196467
  H         0.0006163032       -0.0005803238        0.0004453640
  H         0.0012424696        0.0008336298       -0.0007810626
  H        -0.0002031535        0.0004367710       -0.0001962431
  H        -0.0004994959       -0.0000139778       -0.0007868227
  H         0.0003468881        0.0001247104        0.0000500299
  H        -0.0002771033        0.0000275679       -0.0014571192
  H        -0.0002569649        0.0004956921       -0.0007059717
  H        -0.0007813235        0.0001657833        0.0009807917
  H         0.0002669613        0.0001809727       -0.0001652996
  H         0.0005759009        0.0003664125       -0.0010945713
  H         0.0002869900        0.0005330157       -0.0006548288
  H        -0.0000580941        0.0004553439       -0.0000056260
  H        -0.0000129742       -0.0006880864        0.0001377533
  H        -0.0008219975       -0.0006236540       -0.0003234103
  H         0.0007994263       -0.0005799755       -0.0002844468
  H         0.0001847563       -0.0008079246       -0.0002806412
  H         0.0002904235       -0.0002646902       -0.0000740740
  H         0.0020372411        0.0007087076        0.0000248416
  H        -0.0012610195        0.0003890976        0.0010819540
  H         0.0007251793       -0.0015164975        0.0010229326
  H        -0.0011883637        0.0007546825       -0.0001242844
  H        -0.0001294952        0.0000366678        0.0005829166
  H         0.0008826404       -0.0003334042        0.0008337179
  H         0.0007899815       -0.0009746786       -0.0003712044
  H         0.0010418470        0.0010211300        0.0005675906
  H        -0.0020343477       -0.0004928159       -0.0000198135
  H         0.0002825567       -0.0001594978        0.0007159011
  H        -0.0016679328        0.0008209503       -0.0016053302
  H         0.0005933909       -0.0001304286       -0.0010595852
  H        -0.0000061671       -0.0007537668       -0.0002578762
  H         0.0005245536        0.0006322308        0.0001823801
  H        -0.0000389994        0.0005162575       -0.0012550667
  H         0.0010433795       -0.0006572035        0.0002316796
  H         0.0002952821       -0.0003722809        0.0004606998
  H        -0.0000864852       -0.0007227568        0.0003183018
  H         0.0000858484       -0.0007099278       -0.0001432919
  H         0.0003317995        0.0013495674       -0.0005169684
  H        -0.0006187514        0.0002051946       -0.0004538041
  H         0.0008597708       -0.0003425043        0.0008682687
  H        -0.0007215158       -0.0010479845       -0.0008269783
  H         0.0003436457       -0.0002186551        0.0001490227
  H         0.0008003590       -0.0010762728       -0.0007845635
  H        -0.0003608003       -0.0008413354        0.0005065053
  H        -0.0008084577        0.0010743005        0.0001124488
  H        -0.0000859761       -0.0002537698       -0.0000240323
  H         0.0014479336        0.0007898693       -0.0007940698
  H        -0.0002517991        0.0007709956        0.0007027042
  H        -0.0001852293        0.0001607738       -0.0001428247
  H        -0.0007359179       -0.0003867787        0.0006958750
  H        -0.0001576250        0.0004832908       -0.0000334727
  H         0.0004006575        0.0011512359        0.0001072472
  H        -0.0000935799        0.0001963122        0.0001993818
  H         0.0012158709        0.0005190323        0.0006264660
  H         0.0004423915        0.0001675126        0.0015505156
  H        -0.0001864385        0.0003359715       -0.0003530691
  H         0.0012467472        0.0004051841        0.0000253282
  H         0.0005228985       -0.0001174545       -0.0008264458
  H        -0.0011412505       -0.0003798446       -0.0005121181
  H        -0.0006434298        0.0000729909       -0.0002780877
  H         0.0000152087        0.0001229666        0.0002536464
  H        -0.0011915441       -0.0005540009       -0.0005350328
  H         0.0004274270       -0.0002939790        0.0007277740
  H         0.0000746386       -0.0004560901       -0.0001290473
  H         0.0006919554        0.0011853112       -0.0015416033
  H         0.0007665909        0.0005170087        0.0001480541
  H        -0.0003738920       -0.0007131749       -0.0002011668
  H        -0.0008746427       -0.0010262121       -0.0003864127
  H        -0.0004067821       -0.0008772249        0.0012632775
  H        -0.0003743366       -0.0015093521        0.0009782887
  H         0.0000042456        0.0010471044       -0.0005910213
  H        -0.0005175319       -0.0009822621       -0.0000238421
  H         0.0000296464       -0.0018663684       -0.0002246486
  H         0.0003869095       -0.0007438569        0.0001195940
  H         0.0017444853        0.0000542067        0.0006355780
  H        -0.0004604870        0.0006740722        0.0008312824
  H         0.0000005102        0.0005738134       -0.0006006989
  H        -0.0007988004        0.0007214609        0.0004000292
  H        -0.0009875183       -0.0001192980       -0.0007942029
  H        -0.0009203281       -0.0007880707       -0.0010562264
  H         0.0008497684        0.0000018882       -0.0000420038
  H         0.0000885043       -0.0000800992        0.0001357596
  H        -0.0003638578        0.0001286602       -0.0008627712
  H        -0.0008503868       -0.0005205051       -0.0000109684
  H         0.0002964084       -0.0003816789       -0.0008294393
  H        -0.0011091804        0.0000548793        0.0009015326
  H        -0.0003909528        0.0020569671       -0.0000877238
  H        -0.0001629289       -0.0003367777        0.0007330869
  H         0.0009887547        0.0006675308       -0.0007685092
  H        -0.0007773800       -0.0011741045       -0.0000972914
  H         0.0014867235        0.0002209736        0.0009760234
  H         0.0000725153        0.0007876432        0.0000446354
  H        -0.0005690084        0.0006243653       -0.0007747194
  H        -0.0003713995        0.0006020094        0.0002002908
  H        -0.0005454348        0.0005493810       -0.0004966788
  H         0.0008508869        0.0000116530       -0.0002307770
  H         0.0002326791        0.0000986778       -0.0002449173
  H        -0.0012199620       -0.0005383606       -0.0003275338
  H         0.0003107973        0.0003292085       -0.0003632064
  H        -0.0006769453        0.0009072091        0.0002671356
  H         0.0028595427       -0.0007097868       -0.0001487418
  H         0.0010229134       -0.0005068764        0.0009743576
  H         0.0008719805        0.0004621316        0.0002561315
  H        -0.0001971260        0.0002003473        0.0008185858
  H         0.0009673585        0.0010261200       -0.0009080527
  H        -0.0002460633        0.0008269808        0.0000197112
     192
 i =        1, time =        0.500, E =     -1103.9554811432
  O         0.0002782821       -0.0001778554       -0.0000412478
  O         0.0000878729       -0.0000676588       -0.0000910602
  O        -0.0000781188       -0.0001284979       -0.0001853850
  O         0.0003631724       -0.0002708156        0.0001355217
  O         0.0003438117       -0.0001453454        0.0000497275
  O         0.0001231897       -0.0001297588        0.0002422515
  O        -0.0000163014       -0.0001063122        0.0001504385
  O        -0.0002863286       -0.0001928115       -0.0001549330
  O        -0.0002174979        0.0001781950       -0.0001808735
  O        -0.0000327028        0.0003622701       -0.0001296659
  O        -0.0000895434        0.0003090992       -0.0001406535
  O         0.0001307551       -0.0000585159        0.0002251633
  O         0.0000044650        0.0000807268       -0.0002404351
  O        -0.0001296489       -0.0000404314        0.0001593156
  O        -0.0000211528        0.0003306955       -0.0000083884
  O         0.0003603685        0.0001257413        0.0000539654
  O        -0.0000225963       -0.0002609527        0.0002128177
  O        -0.0000693992        0.0000784379        0.0000679526
  O         0.0001049978        0.0000124597       -0.0000465233
  O        -0.0001164676        0.0001551525        0.0000746363
  O         0.0001124512       -0.0000161591        0.0003694768
  O        -0.0002132896        0.0000050481       -0.0000910191
  O         0.0002687486        0.0000086342       -0.0001117848
  O        -0.0005231483       -0.0000450818        0.0000201073
  O        -0.0002043717        0.0001409958       -0.0001229181
  O         0.0002685286        0.0001851017        0.0002304495
  O         0.0000837425       -0.0002975977        0.0000895425
  O         0.0000709684        0.0000152092        0.0000042675
  O        -0.0003033318       -0.0000504392        0.0001040349
  O        -0.0002229391        0.0000086931       -0.0000819916
  O        -0.0000180335        0.0002413533        0.0001695124
  O        -0.0001337864        0.0001114111        0.0001837767
  O         0.0003860819        0.0002013676        0.0002144138
  O         0.0000537404       -0.0001706999       -0.0001525900
  O         0.0003530051        0.0001339974       -0.0001242118
  O        -0.0002353536       -0.0001890164        0.0000333865
  O        -0.0003173399        0.0001740371       -0.0000954484
  O        -0.0000901119        0.0003405158        0.0000943997
  O         0.0000037631       -0.0000471472       -0.0000188378
  O        -0.0002775090       -0.0000027414        0.0000216410
  O         0.0000287177        0.0000232300       -0.0003075808
  O        -0.0000992164       -0.0001971617       -0.0001176250
  O        -0.0001009888       -0.0000859779       -0.0000823338
  O         0.0000469851       -0.0000954187       -0.0000397602
  O        -0.0003152086       -0.0003047441       -0.0000270826
  O        -0.0000514299       -0.0001017590       -0.0001808291
  O         0.0001217975        0.0000497001       -0.0003782037
  O         0.0000909884        0.0002763182        0.0000002464
  O        -0.0002734934       -0.0000506711       -0.0000848495
  O         0.0001208001       -0.0001055660        0.0000366792
  O         0.0001104477       -0.0000292944       -0.0000180308
  O         0.0002014399       -0.0001840996        0.0001923665
  O         0.0000871617        0.0003952448        0.0001756253
  O         0.0000150812        0.0000351327        0.0000340347
  O        -0.0002929975       -0.0000609443       -0.0003234974
  O        -0.0001533643       -0.0001666242       -0.0000540593
  O         0.0002246306       -0.0000255779       -0.0001105784
  O         0.0003407610       -0.0000790775        0.0002546112
  O         0.0000376509       -0.0000099210        0.0002364843
  O         0.0000422981       -0.0000929046       -0.0000942958
  O        -0.0000988816        0.0001308187        0.0001874668
  O         0.0000967800       -0.0001879643        0.0000120669
  O        -0.0000303999        0.0000295138       -0.0000750201
  O         0.0001849271       -0.0001546416        0.0001222588
  H        -0.0006782909        0.0007606906       -0.0009729743
  H         0.0001322674       -0.0005729773        0.0007438527
  H        -0.0005018564        0.0006350733        0.0009176719
  H         0.0010092019        0.0004829066        0.0010150348
  H         0.0003788395        0.0001318819        0.0000662780
  H         0.0007213886        0.0003741327       -0.0017703762
  H         0.0005366431        0.0007998827        0.0015359015
  H         0.0000020275       -0.0006777022       -0.0003827373
  H         0.0003677780       -0.0011893577        0.0003988074
  H        -0.0004612921        0.0010554604       -0.0005519639
  H        -0.0006592901       -0.0004500274       -0.0003809293
  H        -0.0007502509       -0.0013113550       -0.0002389019
  H        -0.0007501798       -0.0011305242        0.0012855751
  H        -0.0003585848       -0.0000822759       -0.0011200141
  H         0.0003056220       -0.0002277613       -0.0008458070
  H         0.0001344710        0.0013228548       -0.0003059004
  H        -0.0003569659        0.0005802612        0.0014134264
  H        -0.0014318676        0.0003313855       -0.0006747554
  H        -0.0002548194       -0.0011166326       -0.0000302866
  H        -0.0004249844        0.0009096058        0.0006956473
  H        -0.0007436939       -0.0001768546       -0.0003311934
  H        -0.0002435489        0.0002619709        0.0007843250
  H        -0.0000398072        0.0011581144       -0.0001686907
  H         0.0005639115       -0.0005675689        0.0005060478
  H         0.0012905366        0.0006878831       -0.0007127120
  H        -0.0002922009        0.0004591031       -0.0000959144
  H        -0.0006107238        0.0000173910       -0.0005888242
  H         0.0003372473        0.0000752767       -0.0000896088
  H        -0.0004317994       -0.0000551393       -0.0014423464
  H        -0.0002478874        0.0006899927       -0.0005963065
  H        -0.0007535441        0.0000625188        0.0009587588
  H         0.0002422467        0.0001327229       -0.0001783002
  H         0.0005318068        0.0002689598       -0.0011841098
  H         0.0003504161        0.0005847439       -0.0007438013
  H        -0.0000703171        0.0005180242       -0.0000324276
  H         0.0000174893       -0.0007410468        0.0001127190
  H        -0.0009364736       -0.0007025561       -0.0003633915
  H         0.0008183231       -0.0005698064       -0.0002604267
  H         0.0000799776       -0.0007014455       -0.0002104048
  H         0.0002569049       -0.0000789322       -0.0000186912
  H         0.0019005352        0.0006688086        0.0001228647
  H        -0.0012403626        0.0003750444        0.0011269126
  H         0.0007442270       -0.0015119613        0.0010553120
  H        -0.0012243356        0.0007189055        0.0000340651
  H        -0.0001067616       -0.0000763898        0.0005785322
  H         0.0009078237       -0.0003690207        0.0008335462
  H         0.0008098442       -0.0009631843       -0.0003673964
  H         0.0010769127        0.0010552686        0.0006073633
  H        -0.0019334902       -0.0003165753       -0.0001185313
  H         0.0002488324       -0.0001392461        0.0007183823
  H        -0.0015448808        0.0008561676       -0.0016332769
  H         0.0004957119       -0.0001017064       -0.0009922394
  H         0.0000596128       -0.0006029439       -0.0002496499
  H         0.0005013382        0.0006740221        0.0000010379
  H        -0.0001442381        0.0005178063       -0.0012008455
  H         0.0009983732       -0.0006944739        0.0001731028
  H         0.0001354334       -0.0002632948        0.0005093271
  H        -0.0001699842       -0.0006962979        0.0003340522
  H        -0.0000649083       -0.0006343778       -0.0001473479
  H         0.0003487921        0.0011926697       -0.0004403042
  H        -0.0006741659        0.0002131912       -0.0005476494
  H         0.0009223636       -0.0003558654        0.0008522553
  H        -0.0005943300       -0.0010163381       -0.0008522707
  H         0.0002628839       -0.0002303665        0.0001340657
  H         0.0007101401       -0.0009496661       -0.0006422972
  H        -0.0004133197       -0.0007959278        0.0005106169
  H        -0.0008136842        0.0011348261        0.0001296897
  H        -0.0001185577       -0.0002484085        0.0001195957
  H         0.0013927172        0.0007690035       -0.0008796858
  H        -0.0002933360        0.0007472857        0.0007291166
  H        -0.0001551996        0.0001710775       -0.0001227452
  H        -0.0008097696       -0.0005331462        0.0005877327
  H        -0.0002434633        0.0004584946       -0.0000358243
  H         0.0003715677        0.0010148739        0.0000683627
  H        -0.0000776706        0.0002872901        0.0002086209
  H         0.0010565870        0.0003350271        0.0005170262
  H         0.0003004781        0.0002792149        0.0014926010
  H        -0.0001332471        0.0001057994       -0.0002323097
  H         0.0012653671        0.0004165569        0.0000203370
  H         0.0003842922       -0.0001817084       -0.0008717036
  H        -0.0012521776       -0.0002618166       -0.0003955307
  H        -0.0006397776        0.0002463419       -0.0003202435
  H        -0.0000205211        0.0000944853        0.0002216315
  H        -0.0012700938       -0.0005165634       -0.0004513856
  H         0.0003913398       -0.0002698022        0.0007147747
  H        -0.0000733866       -0.0004225822       -0.0000895207
  H         0.0006420802        0.0009322988       -0.0014377838
  H         0.0008310947        0.0004993945        0.0001537023
  H        -0.0003675969       -0.0006506849       -0.0001518302
  H        -0.0009294238       -0.0011046728       -0.0004006274
  H        -0.0005173878       -0.0008558927        0.0010703977
  H        -0.0003394825       -0.0015002122        0.0010092287
  H        -0.0000816337        0.0010551120       -0.0005385815
  H        -0.0006370443       -0.0010027543       -0.0001811785
  H        -0.0000601924       -0.0018203469       -0.0003169831
  H         0.0003026486       -0.0007439394        0.0000685509
  H         0.0015604817        0.0000041373        0.0006467825
  H        -0.0004788752        0.0007674878        0.0007616060
  H        -0.0000751036        0.0006203767       -0.0004905735
  H        -0.0008410363        0.0008017210        0.0004437113
  H        -0.0010822678        0.0000041797       -0.0008020390
  H        -0.0008974707       -0.0007449255       -0.0011161354
  H         0.0009419669        0.0000689162        0.0000894317
  H         0.0000494538       -0.0002125401        0.0002388577
  H        -0.0003266630        0.0000857630       -0.0008469110
  H        -0.0009058230       -0.0005618807       -0.0000055758
  H         0.0001501034       -0.0004529996       -0.0008500062
  H        -0.0010437308        0.0000302713        0.0008839102
  H        -0.0004078799        0.0021026188       -0.0001578472
  H        -0.0001951469       -0.0002467463        0.0007574176
  H         0.0008694256        0.0006393821       -0.0008259649
  H        -0.0008248352       -0.0011774863        0.0000245693
  H         0.0015336742        0.0001061659        0.0009465677
  H         0.0000435163        0.0007700512        0.0000538292
  H        -0.0005170982        0.0006510153       -0.0007936973
  H        -0.0004979902        0.0004527060        0.0000251046
  H        -0.0006064179        0.0005368759       -0.0004435962
  H         0.0008132699       -0.0000580568       -0.0001408917
  H         0.0003691083        0.0001514617       -0.0001036682
  H        -0.0012358635       -0.0005547711       -0.0002710952
  H         0.0003589990        0.0003358289       -0.0004062989
  H        -0.0006643250        0.0008674732        0.0003167510
  H         0.0027162087       -0.0008955003       -0.0001188045
  H         0.0009987698       -0.0005082591        0.0009045368
  H         0.0007735440        0.0005883270        0.0002528595
  H        -0.0002453270        0.0001004016        0.0007109952
  H         0.0009673152        0.0011109888       -0.0006985014
  H        -0.0003028082        0.0007890683       -0.0000099896
     192
 i =        2, time =        1.000, E =     -1103.9372459906
  O         0.0002764879       -0.0001809272       -0.0000186770
  O         0.0000731917       -0.0000581326       -0.0000792151
  O        -0.0000780846       -0.0001319580       -0.0001783964
  O         0.0003558341       -0.0002785201        0.0001519019
  O         0.0003517618       -0.0001530808        0.0000567309
  O         0.0001293945       -0.0001322321        0.0002381940
  O        -0.0000395172       -0.0000836933        0.0001519504
  O        -0.0002853115       -0.0001629532       -0.0001672133
  O        -0.0002206934        0.0001739525       -0.0001759100
  O        -0.0000186914        0.0003383937       -0.0001236925
  O        -0.0000937386        0.0003049001       -0.0001508202
  O         0.0001308252       -0.0000601784        0.0002246442
  O         0.0000098254        0.0000896237       -0.0002500138
  O        -0.0001208922       -0.0000401689        0.0001535690
  O        -0.0000157812        0.0003224591       -0.0000214981
  O         0.0003628299        0.0001346888        0.0000591411
  O        -0.0000211598       -0.0002553090        0.0002195372
  O        -0.0000747223        0.0000780289        0.0000716842
  O         0.0001060416        0.0000092365       -0.0000484825
  O        -0.0001026591        0.0001380512        0.0000647531
  O         0.0001173269       -0.0000117638        0.0003504329
  O        -0.0002111796       -0.0000048139       -0.0000961795
  O         0.0002672778        0.0000081213       -0.0001109394
  O        -0.0005235323       -0.0000512478        0.0000171194
  O        -0.0002134468        0.0001231597       -0.0001130353
  O         0.0002636570        0.0001795084        0.0002189682
  O         0.0000736509       -0.0003164358        0.0000927907
  O         0.0000830466        0.0000146164        0.0000024295
  O        -0.0002895035       -0.0000668634        0.0001048165
  O        -0.0001961794        0.0000143189       -0.0000883411
  O        -0.0000106809        0.0002342851        0.0001768478
  O        -0.0001342458        0.0001085441        0.0001873324
  O         0.0003965983        0.0001821384        0.0002009133
  O         0.0000448085       -0.0001687188       -0.0001621479
  O         0.0003605843        0.0001326342       -0.0001094439
  O        -0.0002342077       -0.0001760941        0.0000459611
  O        -0.0003081509        0.0001942733       -0.0000966345
  O        -0.0000799473        0.0003503340        0.0001031252
  O         0.0000072760       -0.0000388208       -0.0000211693
  O        -0.0002701864        0.0000033625        0.0000277815
  O         0.0000250136        0.0000220426       -0.0003048698
  O        -0.0000967873       -0.0001953762       -0.0001194547
  O        -0.0000898507       -0.0000870447       -0.0000779653
  O         0.0000507246       -0.0000640665       -0.0000614336
  O        -0.0003194013       -0.0003106605       -0.0000298178
  O        -0.0000504176       -0.0001149393       -0.0001557736
  O         0.0001357346        0.0000510670       -0.0003629675
  O         0.0000977308        0.0002663513        0.0000166457
  O        -0.0002411953       -0.0000468708       -0.0000913159
  O         0.0001307876       -0.0001166560        0.0000242249
  O         0.0001121015       -0.0000518453       -0.0000241077
  O         0.0001991747       -0.0001799880        0.0001835054
  O         0.0000750115        0.0003964665        0.0001678737
  O         0.0000197010        0.0000521394        0.0000395548
  O        -0.0002932167       -0.0000676296       -0.0003227597
  O        -0.0001460855       -0.0001609880       -0.0000533346
  O         0.0002267767       -0.0000163306       -0.0001087005
  O         0.0003491411       -0.0000728518        0.0002710642
  O         0.0000369116        0.0000036522        0.0002162667
  O         0.0000270278       -0.0000982280       -0.0001077173
  O        -0.0000998937        0.0001331216        0.0001786790
  O         0.0001183193       -0.0001727658        0.0000067148
  O        -0.0000198226        0.0000263997       -0.0000620740
  O         0.0001903748       -0.0001580882        0.0000988875
  H        -0.0006592733        0.0007882683       -0.0009329224
  H         0.0001437513       -0.0005248595        0.0004051838
  H        -0.0003796375        0.0007075249        0.0008591512
  H         0.0011145988        0.0003403602        0.0007663204
  H         0.0003652104        0.0000345619       -0.0000458306
  H         0.0007193484        0.0004952104       -0.0017935266
  H         0.0005324324        0.0009117243        0.0012435996
  H         0.0001396713       -0.0006525550       -0.0003317139
  H         0.0002358744       -0.0010719123        0.0002723729
  H        -0.0004685942        0.0009979666       -0.0005052033