     192
 i =        0, time =        0.000, E =     -1103.9647605165
  O        12.2353220000        1.3766420000       10.8698800000
  O         6.4453900000        3.7069400000        8.6507940000
  O         0.0859770000        2.1813220000        8.2766630000
  O        12.0525540000        2.6713660000        2.1471990000
  O        12.2500360000        4.1909300000       12.0920140000
  O         7.1874220000        0.9590620000        4.7334690000
  O         8.3464570000        7.2100400000        4.6676440000
  O        12.3615460000       11.5278750000        8.1068870000
  O         3.2999840000        4.4408160000        9.1932750000
  O         2.8558290000        3.7599090000        6.5528150000
  O         1.3924940000        6.3627530000        0.5861720000
  O         1.8586450000        8.6940130000        2.0687380000
  O         3.7702310000       12.0945190000        8.6521830000
  O         6.4325080000        3.6698280000        2.7724180000
  O         1.9987240000        1.8202170000        4.8764400000
  O         8.2485810000        2.4047300000        6.9313030000
  O         5.7538140000        3.3600290000       12.4615340000
  O        11.3222120000        5.6492390000        2.2367980000
  O         4.2773180000        2.1139560000       10.5908080000
  O         5.4050150000        3.3492470000        5.4847020000
  O         6.4932780000       11.8699580000        0.6849120000
  O         3.2752500000        2.3465760000        2.4252410000
  O         7.9810030000        6.3525120000        7.5079700000
  O         5.9859900000        6.5128540000       12.1946480000
  O        10.6367140000       11.8568720000       12.2095400000
  O         9.3122830000        3.6703840000        3.5085940000
  O         1.1068850000        5.8303010000        6.6386950000
  O         8.0080070000        3.3263630000       10.8698180000
  O        12.4030000000        9.6874050000       11.7619010000
  O         4.2197820000        7.0853150000        8.1534700000
  O         3.7815570000        8.2038210000       11.5632720000
  O        11.0888980000        4.5320810000        7.8094750000
  O        10.3875480000        8.4088900000        1.0178820000
  O         1.9790160000        6.4180910000       10.3741590000
  O         4.6605470000        0.5496660000        5.6174030000
  O         8.7458800000       12.2562570000        8.0893830000
  O         2.6620410000       10.4898900000        0.0929800000
  O         7.2416610000       10.4718150000        4.2269460000
  O         2.2768270000        0.2766470000       10.8104170000
  O         8.8877330000        0.9468770000        1.3338850000
  O         1.9435540000        8.0885520000        7.5676500000
  O         9.6679420000        8.0567590000        9.8688470000
  O        10.9054910000        8.3396380000        6.4847820000
  O         3.5077330000        4.8624020000        1.5574390000
  O         8.0104570000        8.6428460000       12.0559690000
  O         8.3744460000       10.0359320000        6.6903090000
  O         5.6352470000        6.0768750000        5.5639930000
  O        11.7284340000        1.6019060000        5.0794750000
  O         9.7711340000        9.8141140000        3.5487030000
  O         3.9443550000       10.5634500000        4.6875360000
  O         0.8903570000        6.3822870000        4.0658060000
  O         6.8624470000        6.4251820000        2.4882020000
  O         3.8139630000        6.5951220000        3.7626490000
  O         6.5624480000        8.2954630000        8.8071820000
  O         9.8094550000        0.1433250000        3.8865530000
  O         4.1170740000       11.6612250000        2.2216790000
  O         5.2953170000        8.7355610000        2.7631830000
  O         9.9719990000        5.3793390000        5.3403780000
  O        12.2547080000        8.6438740000        3.9571160000
  O         2.3442740000       10.7612740000        6.8291620000
  O         7.0134160000        0.6434880000       10.5187970000
  O         5.1523490000       10.2336240000       10.3593880000
  O        11.1842780000        5.8840640000       10.2982790000
  O        12.2523350000        8.9741420000        9.0708310000
  H        12.4151390000        2.2331250000       11.2576110000
  H        11.9224760000        1.5737990000        9.9869940000
  H         5.6081920000        3.3715430000        8.9714820000
  H         6.7312260000        3.0608510000        8.0049620000
  H        -0.1692050000        1.5655940000        7.5896450000
  H        -0.4554400000        2.9547710000        8.1189390000
  H        12.1251680000        2.8264630000        1.2054430000
  H        12.8888280000        2.9697610000        2.5047450000
  H        11.5532550000        4.3866130000       11.4655660000
  H        12.8182810000        4.9608080000       12.0671510000
  H         7.0494950000        1.7723440000        4.2478980000
  H         6.3530190000        0.7981450000        5.1740470000
  H         7.7818500000        7.3848520000        5.4205660000
  H         9.1032030000        6.7540170000        5.0358980000
  H        12.7712320000       11.7886450000        8.9317440000
  H        12.0180350000       10.6506520000        8.2763340000
  H         3.5572450000        3.7925290000        9.8488460000
  H         2.5438440000        4.8841020000        9.5779580000
  H         2.3202350000        4.5212500000        6.3298130000
  H         2.8721280000        3.7499630000        7.5098240000
  H         1.2096850000        7.1213910000        1.1405010000
  H         2.2388850000        6.0388010000        0.8942450000
  H         2.7631090000        8.8563530000        2.3367350000
  H         1.3293790000        9.0473690000        2.7837550000
  H         4.3156390000       11.5333880000        9.2034490000
  H         3.0987420000       12.4330430000        9.2444120000
  H         5.9873690000        3.4489740000        3.5905300000
  H         5.8130960000        3.4193440000        2.0869850000
  H         1.0571260000        1.6753440000        4.9693790000
  H         2.2484960000        2.2921190000        5.6708920000
  H         8.5082640000        1.6533370000        7.4644110000
  H         8.0660150000        2.0345970000        6.0676460000
  H         5.1978350000        2.9155420000       11.8215720000
  H         6.6309000000        3.3299810000       12.0793710000
  H        10.7889860000        6.4366720000        2.1279330000
  H        11.6579230000        5.4636020000        1.3598320000
  H         3.5444760000        1.6349580000       10.9777650000
  H         4.7557700000        1.4550540000       10.0876550000
  H         4.4653710000        3.3754590000        5.6652940000
  H         5.6826630000        4.2644300000        5.5244980000
  H         6.1748150000       11.7786760000        1.5829540000
  H         5.7136400000       12.0899240000        0.1749990000
  H         3.4760760000        1.4987080000        2.0289830000
  H         2.7302290000        2.1342950000        3.1829490000
  H         7.1196240000        5.9364500000        7.4740300000
  H         8.5364920000        5.7994050000        6.9586650000
  H         5.9094990000        5.7174770000       11.6676210000
  H         6.1254020000        6.1967580000       13.0873300000
  H        11.2034990000       12.5135360000       11.8048440000
  H        10.2609300000       12.3001530000       12.9701450000
  H         9.9850360000        3.9276850000        2.8781720000
  H         8.5455840000        3.4683290000        2.9723310000
  H         1.3998820000        6.6200920000        7.0932460000
  H         0.9635610000        6.1125230000        5.7353450000
  H         8.0673630000        3.6740020000        9.9799550000
  H         8.0007370000        2.3759590000       10.7561900000
  H        11.8216290000       10.4025100000       12.0204820000
  H        12.2068540000        8.9832420000       12.3798920000
  H         3.4614730000        7.6064850000        7.8896880000
  H         3.8444780000        6.3047110000        8.5609460000
  H         3.1798840000        7.5856140000       11.1484940000
  H         4.4019570000        7.6520300000       12.0395730000
  H        11.5737770000        5.0532110000        7.1695150000
  H        10.3420760000        4.1860830000        7.3208310000
  H        10.0656400000        8.9191940000        1.7609810000
  H         9.6295850000        8.3224990000        0.4397290000
  H         1.3963020000        6.5460790000        9.6256300000
  H         1.4055160000        6.4797590000       11.1380490000
  H         4.0240080000        1.2325180000        5.4058280000
  H         4.7368580000        0.5798810000        6.5710770000
  H         9.4522930000       12.3133810000        8.7327720000
  H         8.9765590000       11.5027880000        7.5459650000
  H         1.8347010000       10.0123110000        0.1534620000
  H         3.2951970000        9.8364030000       -0.2041750000
  H         7.0567240000       11.4017020000        4.0952640000
  H         6.4990380000       10.0202870000        3.8258650000
  H         1.3655410000        0.4873380000       11.0138870000
  H         2.5015910000       -0.4281310000       11.4178710000
  H         8.6442790000        1.8123620000        1.0054090000
  H         8.1426740000        0.3880300000        1.1129550000
  H         1.2726590000        8.3650630000        8.1918880000
  H         2.1424850000        8.8777680000        7.0638670000
  H         8.9614930000        7.8261920000        9.2655230000
  H         9.2271020000        8.4876540000       10.6011180000
  H        10.1501440000        7.7589340000        6.3927680000
  H        10.5960820000        9.1879880000        6.1672900000
  H         3.4631060000        4.0961880000        2.1294140000
  H         3.9194610000        4.5398010000        0.7557910000
  H         7.4189980000        9.3949590000       12.0288760000
  H         7.4304130000        7.8830950000       12.1065460000
  H         7.9729050000       10.2203340000        5.8411960000
  H         7.6751110000        9.6314980000        7.2037250000
  H         5.3324460000        6.3813360000        6.4194730000
  H         5.0000250000        6.4341860000        4.9434660000
  H        11.5750780000        2.2711670000        4.4125400000
  H        11.2198020000        0.8470300000        4.7833570000
  H         8.8653420000        9.7215160000        3.8439980000
  H        10.0007320000       10.7192850000        3.7588980000
  H         3.1861960000       10.4763970000        5.2653330000
  H         4.4073310000       11.3351280000        5.0137230000
  H         0.5581870000        7.2559360000        3.8593310000
  H         0.3416720000        5.7893830000        3.5523460000
  H         7.4599330000        6.5260490000        3.2291930000
  H         6.6962280000        5.4837390000        2.4403720000
  H         3.8648720000        6.3130070000        2.8493850000
  H         2.8764190000        6.6212010000        3.9538620000
  H         5.6315290000        8.0791450000        8.7539970000
  H         7.0032960000        7.5682450000        8.3678220000
  H         9.6154130000        0.5279020000        3.0317550000
  H         8.9629850000        0.1093660000        4.3321620000
  H         3.8258540000       11.1391820000        1.4740870000
  H         4.0639880000       11.0632320000        2.9672110000
  H         5.7843910000        7.9145580000        2.7084860000
  H         4.7804610000        8.6551670000        3.5661100000
  H        10.8806590000        5.4446640000        5.0466070000
  H         9.5933310000        4.6879910000        4.7973500000
  H        11.5623170000        8.9601340000        3.3767650000
  H        11.9260840000        8.8169480000        4.8393200000
  H         2.8568740000       11.2979810000        7.4336600000
  H         1.4923320000       11.1955170000        6.7860330000
  H         7.1458200000        0.0902000000        9.7490090000
  H         7.2272750000        0.0776900000       11.2606650000
  H         4.6620210000        9.5384300000       10.7981550000
  H         5.9945370000        9.8334720000       10.1429850000
  H        10.5442990000        6.5958570000       10.3014450000
  H        11.2817500000        5.6530820000        9.3744940000
  H        12.1030200000        8.8411640000       10.0069160000
  H        11.4915920000        8.5762210000        8.6475570000
     192
 i =        1, time =        0.500, E =     -1103.9554811432
  O        12.2383806270        1.3747209146       10.8693199245
  O         6.4464183646        3.7061597333        8.6497498973
  O         0.0851203689        2.1799475592        8.2746009406
  O        12.0565561271        2.6684375355        2.1486101397
  O        12.2537650833        4.1893905618       12.0925242162
  O         7.1887220798        0.9576558853        4.7361454653
  O         8.3463812460        7.2087634932        4.6692900902
  O        12.3584182889       11.5256323215        8.1052484698
  O         3.2976141436        4.4427844260        9.1912860896
  O         2.8554064845        3.7639855859        6.5513854134
  O         1.3915434060        6.3661496714        0.5846879233
  O         1.8600770664        8.6933817176        2.0712026307
  O         3.7702472130       12.0953549776        8.6496116333
  O         6.4310457062        3.6693862696        2.7741871523
  O         1.9984550479        1.8238734725        4.8764127041
  O         8.2525101228        2.4060510720        6.9318662237
  O         5.7535680403        3.3571406272       12.4638097520
  O        11.3214788007        5.6501039389        2.2375179779
  O         4.2784545916        2.1140898733       10.5903084540
  O         5.4036702451        3.3510347281        5.4855709744
  O         6.4944730156       11.8697625688        0.6890323400
  O         3.2729042338        2.3466650111        2.4242744924
  O         7.9839449091        6.3526071004        7.5067426570
  O         5.9802717981        6.5123813465       12.1948826486
  O        10.6345090624       11.8584957305       12.2081612912
  O         9.3152401625        3.6724379175        3.5111582104
  O         1.1078524550        5.8271489361        6.6396445870
  O         8.0087185713        3.3265286319       10.8698540597
  O        12.3996067816        9.6869313747       11.7630410235
  O         4.2172137311        7.0853997910        8.1525972225
  O         3.7813261327        8.2064804169       11.5650905882
  O        11.0874380815        4.5333149838        7.8114646572
  O        10.3917124828        8.4111793939        1.0202700316
  O         1.9796403034        6.4162160333       10.3725408637
  O         4.6643672835        0.5511383843        5.6159789036
  O         8.7432982486       12.2541202838        8.0896807183
  O         2.6585206585       10.4916892455        0.0919428382
  O         7.2406369525       10.4754953501        4.2279406707
  O         2.2768432686        0.2760893007       10.8102239347
  O         8.8846626486        0.9468156070        1.3340901688
  O         1.9438766642        8.0888192795        7.5642794949
  O         9.6668432359        8.0545976447        9.8675784467
  O        10.9043334462        8.3387029488        6.4838609867
  O         3.5082282311        4.8612160827        1.5570996384
  O         8.0070246212        8.6395258619       12.0556882551
  O         8.3738693514       10.0348758917        6.6882281841
  O         5.6364997926        6.0774148561        5.5597771882
  O        11.7293883484        1.6049527071        5.0794004375
  O         9.7680000514        9.8135607221        3.5478038650
  O         3.9456270277       10.5623660283        4.6880084209
  O         0.8915347304        6.3820856646        4.0656224549
  O         6.8646689594        6.4231445284        2.4903605235
  O         3.8149655462        6.5994320884        3.7645967858
  O         6.5625755953        8.2957645516        8.8075301170
  O         9.8062438731        0.1427017692        3.8830023049
  O         4.1153551035       11.6593636440        2.2210955536
  O         5.2977677867        8.7352214272        2.7619648690
  O         9.9756691047        5.3784361289        5.3430723950
  O        12.2551152342        8.6436941975        3.9597885527
  O         2.3448085820       10.7602966130        6.8282064114
  O         7.0123390291        0.6449090333       10.5208808391
  O         5.1533121710       10.2314850202       10.3595411666
  O        11.1838861968        5.8844076264       10.2974042319
  O        12.2543311718        8.9724716693        9.0722713847
  H        12.4076187052        2.2411752362       11.2467434204
  H        11.9237767982        1.5672779522        9.9967599523
  H         5.6022159420        3.3781082553        8.9817273856
  H         6.7417135980        3.0667117285        8.0172649932
  H        -0.1650155278        1.5674603860        7.5908798671
  H        -0.4474804115        2.9581140350        8.0997510920
  H        12.1310548424        2.8346594114        1.2234132584
  H        12.8882849873        2.9622664445        2.5004114332
  H        11.5578998646        4.3729749321       11.4705431870
  H        12.8131909630        4.9725224053       12.0608708718
  H         7.0424030781        1.7675037428        4.2438805927
  H         6.3455122019        0.7835053012        5.1713205247
  H         7.7735281596        7.3727961917        5.4353636693
  H         9.0985523653        6.7540725417        5.0237073662
  H        12.7743439413       11.7861408511        8.9222277371
  H        12.0197225634       10.6667883811        8.2723337458
  H         3.5532814236        3.7990462789        9.8646140218
  H         2.5279041361        4.8877244305        9.5703327273
  H         2.3184407312        4.5077459118        6.3296019122
  H         2.8672584198        3.7597286863        7.5173254910
  H         1.2014551755        7.1187105936        1.1364503525
  H         2.2359619185        6.0422248766        0.9024724753
  H         2.7623281223        8.8691289669        2.3351704681
  H         1.3359029861        9.0410622284        2.7888971452
  H         4.3295463904       11.5416884272        9.1952693463
  H         3.0959207925       12.4380145666        9.2428716064
  H         5.9813709355        3.4490325792        3.5828326881
  H         5.8168809781        3.4204575358        2.0868354233
  H         1.0531513391        1.6751583108        4.9534796890
  H         2.2457287333        2.2985363992        5.6636244871
  H         8.4998898078        1.6545314835        7.4751005091
  H         8.0687890789        2.0363085907        6.0656885115
  H         5.2038797278        2.9189843876       11.8090226413
  H         6.6345577869        3.3360853937       12.0716165275
  H        10.7882040769        6.4420964301        2.1277325747
  H        11.6579723905        5.4557569408        1.3611696234
  H         3.5346110412        1.6275548309       10.9741326969
  H         4.7647758230        1.4485586789       10.0845138487
  H         4.4669116394        3.3671543162        5.6625840470
  H         5.6856752669        4.2624867992        5.5239773252
  H         6.1964557221       11.7862446824        1.5834305219
  H         5.6997148373       12.0941702435        0.1869238782
  H         3.4842052889        1.4818204225        2.0401868022
  H         2.7169357196        2.1423316560        3.1825735386
  H         7.1182035773        5.9362048070        7.4804015596
  H         8.5463226588        5.7955716538        6.9677766487
  H         5.9182331518        5.7066326858       11.6633730247
  H         6.1370168875        6.2081011357       13.0938921260
  H        11.1814747278       12.5087496474       11.8043169420
  H        10.2637890791       12.2985840404       12.9780909094
  H         9.9673951344        3.9368355581        2.8603591278
  H         8.5514712549        3.4670499498        2.9609235804
  H         1.4001187606        6.6125460550        7.0903553258
  H         0.9691751779        6.1197246071        5.7362932534
  H         8.0663917787        3.6798452053        9.9661156583
  H         8.0119100210        2.3683353543       10.7583982798
  H        11.8240726247       10.3989313663       12.0257477414
  H        12.2054110368        8.9753154837       12.3835998709
  H         3.4617316707        7.5989922098        7.8881685396
  H         3.8483934123        6.3190652872        8.5554719998
  H         3.1726298548        7.5877745810       11.1428873117
  H         4.4120180497        7.6480017465       12.0492164323
  H        11.5665202958        5.0418583743        7.1603499132
  H        10.3454730554        4.1836799609        7.3223888878
  H        10.0740877491        8.9078105073        1.7527399717
  H         9.6252006123        8.3135238516        0.4451975076
  H         1.3873126317        6.5581872710        9.6268398339
  H         1.4043278442        6.4770180274       11.1386227426
  H         4.0395664119        1.2410179561        5.3966823813
  H         4.7338962099        0.5881966760        6.5791884244
  H         9.4504196832       12.3151992248        8.7313165707
  H         8.9680798792       11.4978301894        7.5530447482
  H         1.8325538436       10.0175348709        0.1530887267
  H         3.2994044315        9.8483232340       -0.2031827751
  H         7.0558016252       11.4043249827        4.0975013452
  H         6.5118004275       10.0251470324        3.8323000955
  H         1.3695972404        0.4897650100       11.0305625617
  H         2.4997732250       -0.4255930908       11.4145816984
  H         8.6580561515        1.8168898860        1.0056721710
  H         8.1477228465        0.3864101273        1.1037003701
  H         1.2594058919        8.3616156578        8.1870675601
  H         2.1354507374        8.8795078697        7.0605935275
  H         8.9615398290        7.8274436297        9.2682515672
  H         9.2135848796        8.4817969263       10.5957055247
  H        10.1547277097        7.7559232016        6.4006758385
  H        10.5961360974        9.1830886836        6.1661394864
  H         3.4704457442        4.1083069417        2.1126750007
  H         3.9281957306        4.5453426869        0.7574670235
  H         7.4149990242        9.3874185316       12.0269403581
  H         7.4203607555        7.8711915584       12.1022571150
  H         7.9680277642       10.2107638362        5.8543495932
  H         7.6708502501        9.6148275145        7.2148600509
  H         5.3319836087        6.3928751501        6.4133501912
  H         4.9937373765        6.4233139795        4.9423999650
  H        11.5749800093        2.2506341152        4.4099105035
  H        11.2234581993        0.8387381801        4.7842931976
  H         8.8839938828        9.7219392798        3.8508263490
  H         9.9956344754       10.7274371298        3.7677008720
  H         3.1858925585       10.4829772391        5.2593102057
  H         4.3983869389       11.3435566537        5.0184088110
  H         0.5467834839        7.2554417911        3.8505380357
  H         0.3314246548        5.7806967124        3.5401702150
  H         7.4698044260        6.5264545595        3.2295266156
  H         6.6969823707        5.4821429336        2.4424048987
  H         3.8610948465        6.3140716495        2.8396953505
  H         2.8665312958        6.6152794422        3.9538159366
  H         5.6340326147        8.0745300479        8.7447837016
  H         6.9913104211        7.5689561431        8.3777278574
  H         9.6110284663        0.5507744221        3.0301859645
  H         8.9609155771        0.1061519542        4.3404099520
  H         3.8360382528       11.1463706718        1.4653936094
  H         4.0552030045       11.0502263084        2.9669924051
  H         5.8010192533        7.9162203018        2.7189786613
  H         4.7810527879        8.6637025003        3.5666965626
  H        10.8745600540        5.4516377839        5.0380849810
  H         9.5885581521        4.6937663210        4.7985804699
  H        11.5557656297        8.9661840178        3.3713730840
  H        11.9352821814        8.8166437591        4.8370762754
  H         2.8602390264       11.2993715727        7.4317962054
  H         1.4785815122       11.1896544804        6.7827170588
  H         7.1494933890        0.0937763361        9.7446552897
  H         7.2199029562        0.0875260951       11.2637412207
  H         4.6928001424        9.5298759423       10.7965035364
  H         6.0057756396        9.8277469269       10.1532518517
  H        10.5533417430        6.6015592387       10.3042346068
  H        11.2792959024        5.6547961095        9.3831658372
  H        12.1136887989        8.8529291054        9.9977030021
  H        11.4885809098        8.5850589586        8.6475771887
     192
 i =        2, time =        1.000, E =     -1103.9372459906
  O        12.2414099539        1.3727510730       10.8689776260
  O         6.4473123888        3.7054598341        8.6488018838
  O         0.0842680023        2.1785108632        8.2726073493
  O        12.0604990917        2.6654413909        2.1501637967
  O        12.2575575387        4.1877502912       12.0931018833
  O         7.1901170100        0.9562232787        4.7387687151
  O         8.3461003760        7.2077142167        4.6709351308
  O        12.3552820134       11.5236568808        8.1034975448
  O         3.2952258174        4.4447143570        9.1893180471
  O         2.8551135642        3.7678343503        6.5499783103
  O         1.3905350674        6.3695151354        0.5830949355
  O         1.8615055178        8.6927328521        2.0736638775
  O         3.7703286805       12.0962850531        8.6469230214
  O         6.4296716821        3.6689434861        2.7759033331
  O         1.9982612422        1.8274515962        4.8762564878
  O         8.2564647501        2.4074808321        6.9324835973
  O         5.7533196627        3.3543201603       12.4661897933
  O        11.3206937607        5.6509549798        2.2382845928
  O         4.2796150270        2.1142285797       10.5897902128
  O         5.4024670493        3.3526412574        5.4863348109
  O         6.4957380857       11.8696044881        0.6929950126
  O         3.2705838815        2.3466864374        2.4232497827
  O         7.9868823889        6.3527008902        7.5055244943
  O         5.9745451309        6.5118677493       12.1950878854
  O        10.6322429774       11.8599565525       12.2068509321
  O         9.3181575759        3.6744334545        3.5136355240
  O         1.1087170275        5.8237904804        6.6406539129
  O         8.0095595685        3.3266957297       10.8699113587
  O        12.3963640359        9.6863015459       11.7641769621
  O         4.2149047803        7.0855051777        8.1516762772
  O         3.7811624824        8.2091010642       11.5669804072
  O        11.0859711675        4.5345183314        7.8134954663
  O        10.3959942806        8.4132953008        1.0225727122
  O         1.9801916749        6.4143566122       10.3708208027
  O         4.6682696621        0.5525974484        5.6146856284
  O         8.7407311902       12.2521219055        8.0901133946
  O         2.6550985829       10.4936973950        0.0908918847
  O         7.2396896289       10.4792644349        4.2290111730
  O         2.2769093246        0.2756155652       10.8100048878
  O         8.8816619608        0.9468170260        1.3343584375
  O         1.9441822548        8.0890602017        7.5609210824
  O         9.6657714524        8.0524457110        9.8662737275
  O        10.9032816762        8.3377570684        6.4829807901
  O         3.5087608891        4.8603145337        1.5565691706
  O         8.0035612079        8.6361791390       12.0553765168
  O         8.3733208716       10.0337058276        6.6863530173
  O         5.6379115529        6.0779622850        5.5557190699
  O        11.7304245450        1.6079509893        5.0794803912
  O         9.7651508092        9.8130054726        3.5468467556
  O         3.9469977334       10.5611405409        4.6883384272
  O         0.8927732543        6.3816461299        4.0654115419
  O         6.8668538839        6.4211544681        2.4924103857
  O         3.8158698286        6.6037687367        3.7664911395
  O         6.5627779293        8.2962315951        8.8079265745
  O         9.8030451196        0.1419917269        3.8794758761
  O         4.1137188635       11.6575797759        2.2204963484
  O         5.3002312233        8.7350014347        2.7607638853
  O         9.9794537991        5.3776090293        5.3459481080
  O        12.2555316865        8.6436569589        3.9622895458
  O         2.3451993524       10.7592415335        6.8270990993
  O         7.0112527753        0.6463499101       10.5228981950
  O         5.1544662477       10.2295119224       10.3596519866
  O        11.1836129431        5.8847096699       10.2966377911
  O        12.2563806337        8.9707589186        9.0735056445
  H        12.4003000898        2.2497665621       11.2363253272
  H        11.9253696031        1.5612640266       10.0032672012
  H         5.5972129315        3.3854364431        8.9915578270
  H         6.7533042217        3.0714155062        8.0271678269
  H        -0.1609171624        1.5684791680        7.5910949579
  H        -0.4396582451        2.9629558691        8.0802086341
  H        12.1369080937        2.8439619646        1.2390437823
  H        12.8888723561        2.9549349690        2.4963718897
  H        11.5613008471        4.3605935266       11.4742906740
  H        12.8081893529        4.9838982158       12.0550757332