ITEM: TIMESTEP
0
ITEM: NUMBER OF ATOMS
96
ITEM: BOX BOUNDS pp pp pp
2.9236100000000000e+00 1.2773600000000000e+01
4.0306300000000004e+00 1.3880599999999999e+01
2.1372399999999998e+00 1.1987200000000000e+01
ITEM: ATOMS id type x y z vx vy vz
1 1 7.04127 13.3854 3.36807 0.0050755 -0.000142012 -0.00434636
2 2 6.53278 12.5812 3.43147 -0.0208413 0.0102188 0.0159749
3 2 11.4321 12.935 11.278 -0.0207623 -0.0205736 0.0131016
4 1 3.57954 11.9061 10.8047 -0.00642306 -0.001606 -0.00457998
5 2 3.6348 10.9877 10.7605 -0.027958 0.0116628 0.0159695
6 2 3.86725 12.1673 9.93328 -0.00962242 0.00255732 0.00122834
7 1 12.5868 8.2753 2.66736 0.000158837 0.0050706 -0.00517384
8 2 11.8318 8.04271 3.10485 -0.00401517 0.00317551 -0.0025266
9 2 8.4128 7.88466 8.35029 0.0185558 -0.000248099 0.00898796
10 1 7.69232 8.36406 7.91735 -0.00129222 -0.00292952 0.000116307
11 2 7.01975 7.75655 7.62119 -0.0205257 0.0207226 -0.0104878
12 2 6.48907 9.40713 8.95421 -0.0110131 -0.0272745 -0.0151067
13 1 5.91611 9.12579 2.78158 -0.00221383 -0.00791823 0.00818868
14 2 5.98178 9.16765 11.6506 0.0104137 0.0363512 0.0358387
15 2 5.33323 8.33114 2.81976 0.000949242 0.00667847 0.000722648
16 1 8.82186 7.47996 11.3667 0.00290893 -0.00257734 0.00352382
17 2 9.21972 7.20428 2.38085 0.00644558 -0.0203752 -0.0221845
18 2 8.09289 6.83018 11.1283 0.00761509 -0.0173168 0.0160942
19 1 4.35158 6.21519 2.30133 0.00183962 -0.00011964 -0.00677414
20 2 3.51665 6.8914 2.36362 0.00791122 0.00561715 -0.0134652
21 2 12.3493 8.76852 10.6634 0.00119633 0.034158 -0.0159183
22 1 9.75624 10.1654 11.666 -0.00175338 -0.00546473 -0.00196026
23 2 9.77761 10.1928 2.78723 0.0246201 0.0205742 0.0247801
24 2 9.29427 9.32765 11.4876 0.00519107 0.00420176 -0.0346777
25 1 3.13037 8.48854 5.72447 0.00548984 0.0012057 0.00142116
26 2 3.33598 9.46459 5.89377 -0.00298941 0.00481183 -0.00502346
27 2 4.77038 5.38798 3.66883 0.0279214 0.0220296 -0.0126033
28 1 10.1607 7.11991 3.82071 -0.00124814 0.00330162 -0.000343002
29 2 10.1447 6.13394 3.98299 0.0018084 0.0172951 -0.000730304
30 2 9.6522 7.50379 4.53031 -0.0133492 0.0146166 0.0128788
31 1 3.48465 11.031 5.83423 0.0016537 0.00279147 0.00227508
32 2 12.5956 12.9078 5.89345 0.00346649 0.00894742 -0.030621
33 2 3.91381 11.2204 4.96076 -0.00131581 0.00603431 0.0184064
34 1 8.52556 5.09151 8.5472 0.00261229 0.00511708 0.0030906
35 2 8.76813 4.12459 8.73211 -0.0283589 0.00144618 0.00506495
36 2 7.87709 5.24454 9.26463 0.00159145 0.0263642 0.0223243
37 1 7.66946 11.583 10.8157 -0.00027232 0.00590825 0.00477631
38 2 8.48032 11.5222 9.39022 0.00178462 0.0103239 0.00507548
39 2 8.42152 11.0909 11.2246 -0.0262395 0.00767546 0.0272872
40 1 12.3119 13.8752 5.88234 6.49466e-05 -0.00643312 -0.00200465
41 2 3.94283 4.84712 4.85394 -0.0116792 0.0144007 -0.00712363
42 2 11.53 4.10941 5.29608 0.00273375 0.0186955 0.0234082
43 1 4.82823 5.10125 4.61529 -0.00087287 -0.00364005 0.00243146
44 2 3.23262 8.63024 3.47234 0.0132245 0.0180793 -0.0380145
45 2 6.6403 4.17455 3.97059 -0.0132843 0.0142676 0.00301654
46 1 8.82411 11.9129 8.53929 0.000333736 -0.00227586 0.000637687
47 2 7.86785 11.7008 7.27475 -0.00147751 -0.00938842 -0.0204748
48 2 9.76543 11.6466 8.32681 0.0413982 -0.00761274 0.0136643
49 1 10.3986 6.97868 9.21219 0.00103619 0.00051357 0.000602532
50 2 10.0243 6.08893 9.07608 0.0118094 -0.0167412 -0.0156712
51 2 9.79034 7.33278 9.95197 0.0276202 0.00967036 0.0339172
52 1 9.18825 10.0205 4.71297 -0.00277607 0.000747171 0.00698275
53 2 9.87928 9.64909 5.2414 0.00254308 0.0104657 -0.0158017
54 2 8.60068 10.4073 5.34836 -0.0171943 0.00908707 -0.00667406
55 1 4.89566 11.659 3.35727 0.00449751 0.00385351 -0.00113369
56 2 5.21604 10.7188 3.17008 0.0188433 -0.0162106 -0.0104293
57 2 4.41133 11.8493 2.58307 0.00213793 0.00651836 0.00396178
58 1 5.99375 9.91256 9.57827 0.00222583 -0.00201284 0.00746748
59 2 4.89462 12.7296 7.80533 0.000841903 0.0391028 0.0148276
60 2 7.05217 10.7846 10.4507 -0.0244479 0.0126424 -0.00963612
61 1 7.65962 4.60217 5.96357 -0.0006615 -0.00597378 -0.0123641
62 2 8.18912 4.947 6.74719 0.0303523 -0.0039333 -0.00585457
63 2 6.7734 5.04015 6.10466 0.00993555 -0.0020074 0.0224478
64 1 5.06532 11.7532 7.78405 -0.00391436 0.00421944 0.00418675
65 2 4.19124 11.2957 6.55821 -0.0372943 0.00482307 0.0104264
66 2 3.35202 4.48265 7.38052 -0.00462543 -0.026152 -0.0213547
67 1 11.4503 11.0978 8.05624 -0.00350332 -0.0111111 0.00200034
68 2 12.2272 11.1012 7.49448 0.00597281 0.0303736 -0.0028006
69 2 11.7447 10.5906 8.87574 -0.0149095 -0.000540953 -0.0193937
70 1 9.96546 4.37337 4.0842 0.000536535 -0.00266976 0.000260836
71 2 9.98604 13.7908 3.18983 0.0143169 -0.00598187 -0.00178446
72 2 9.02057 4.26639 4.30255 0.00257908 0.0210787 0.0258193
73 1 10.4777 7.6123 6.38483 -0.00408817 -0.00406184 -0.0014497
74 2 10.3929 7.35929 7.35699 -0.00101305 0.0211907 -0.00014804
75 2 11.4433 7.82694 6.19506 -0.0038717 -0.00951531 -0.0199359
76 1 12.6997 5.39032 10.2765 -0.00149094 0.000279549 -0.00122602
77 2 12.0997 5.98631 9.7906 0.00313031 0.0185004 0.0266738
78 2 4.01516 5.56091 11.477 0.012403 0.0168849 -0.0235599
79 1 12.3889 8.90097 9.75983 0.00600086 0.00460955 0.00133729
80 2 11.5471 8.50705 9.43168 0.0265805 0.00623259 -0.020085
81 2 5.45794 10.547 9.08174 -0.0123537 -0.00566279 -0.00751237
82 1 7.06369 5.37298 10.9584 -0.00299161 -0.0010439 0.00441453
83 2 7.1985 4.6293 11.6164 0.0386157 -0.00725045 0.00609185
84 2 6.26984 5.75442 11.3805 0.00948462 0.048312 -0.00896994
85 1 10.537 13.2791 11.2266 0.0019042 0.000940765 -0.00625449
86 2 10.0713 12.6823 10.6942 0.0133704 -0.00789877 -0.00639431
87 2 12.1294 4.65386 10.6514 -0.0208623 -0.0240879 0.00827015
88 1 7.23159 11.8657 6.42352 0.000629014 0.00496243 -0.00125084
89 2 6.08693 11.7323 6.99283 -0.0199545 -0.00206438 0.0287707
90 2 7.31624 12.9084 6.24201 -0.0102781 0.00899005 -0.0035124
91 1 5.37159 6.88711 6.39978 -0.000690477 0.000415508 -0.00315649
92 2 3.92842 8.01016 6.0111 -0.00744039 -0.0223589 0.0120231
93 2 5.12408 6.17901 7.02898 -0.0124046 -0.0020629 0.00607779
94 1 4.13299 4.57901 8.04066 -0.0020041 -0.00521694 -0.00443619
95 2 3.73402 4.75091 8.9127 -0.0109937 -0.00675294 -0.00234507
96 2 5.55944 6.40161 5.56278 -0.00852891 -0.00531228 0.0111828
ITEM: TIMESTEP
1
ITEM: NUMBER OF ATOMS
96
ITEM: BOX BOUNDS pp pp pp
2.9236100000000000e+00 1.2773600000000000e+01
4.0306300000000004e+00 1.3880599999999999e+01
2.1372399999999998e+00 1.1987200000000000e+01
ITEM: ATOMS id type x y z vx vy vz
1 1 7.04388 13.3854 3.36587 0.00529289 0.000188969 -0.00439685
2 2 6.52157 12.5858 3.43954 -0.0237186 0.00825209 0.0161042
3 2 11.4215 12.9241 11.2843 -0.021085 -0.0230455 0.0120484
4 1 3.57629 11.9054 10.8024 -0.00659828 -0.00113418 -0.00451722
5 2 3.62082 10.9919 10.7681 -0.0278934 0.00451541 0.0141418
6 2 3.86269 12.1685 9.93366 -0.00852164 0.0020243 6.17017e-05
7 1 12.5871 8.27794 2.66482 0.000959171 0.00546917 -0.00503276
8 2 11.8265 8.04297 3.10452 -0.0162812 -0.00185911 0.00113221
9 2 8.4213 7.88404 8.35427 0.0148616 -0.00210457 0.00661252
10 1 7.69168 8.36266 7.91744 -0.00124649 -0.00267926 0.000244929
11 2 7.00992 7.76632 7.61594 -0.0185787 0.0182591 -0.0104246
12 2 6.48479 9.39256 8.94529 -0.00659722 -0.0304227 -0.0197632
13 1 5.91493 9.12175 2.78558 -0.00247377 -0.00820225 0.0078858
14 2 5.98722 9.18628 11.6696 0.0112956 0.0379432 0.0389173
15 2 5.33429 8.33539 2.82044 0.00286481 0.00970595 0.00182944
16 1 8.82326 7.47868 11.3684 0.00266059 -0.00255044 0.00320833
17 2 9.22317 7.19387 2.37016 0.00774831 -0.0212298 -0.0200118
18 2 8.09721 6.82146 11.1369 0.00954371 -0.017489 0.0179839
19 1 4.35241 6.21523 2.2979 0.00148483 0.00029296 -0.00693415
20 2 3.52246 6.89326 2.3572 0.0151442 0.00193682 -0.0121556
21 2 12.3501 8.78534 10.6578 0.00180527 0.0329769 -0.00591199
22 1 9.75537 10.1627 11.665 -0.0017241 -0.00542987 -0.00192037
23 2 9.78975 10.2032 2.79984 0.0235512 0.0205892 0.0243612
24 2 9.29702 9.32947 11.4702 0.00583116 0.00306767 -0.0342937
25 1 3.13312 8.48907 5.72516 0.00550707 0.000885706 0.0013258
26 2 3.33428 9.4668 5.89139 -0.00357629 0.00364565 -0.00443667
27 2 4.78433 5.39944 3.66169 0.0276655 0.0234644 -0.0150449
28 1 10.1601 7.12151 3.82047 -0.00129027 0.00314278 -0.000569397
29 2 10.1456 6.14257 3.98267 0.00196324 0.0169007 -0.000421173
30 2 9.6456 7.51152 4.53771 -0.0125462 0.0158466 0.0160374
31 1 3.48545 11.0325 5.83529 0.00151608 0.00329113 0.00199452
32 2 12.5963 12.9137 5.87771 -0.000494873 0.0140999 -0.0323212
33 2 3.91328 11.2233 4.96999 -0.000420731 0.00583711 0.0179818
34 1 8.52689 5.09395 8.5488 0.00268833 0.00466446 0.00331776
35 2 8.75368 4.12671 8.73394 -0.0293065 0.0068188 0.0022579
36 2 7.87802 5.25798 9.27549 0.00254978 0.0273075 0.0206408
37 1 7.66923 11.5858 10.818 -0.000662584 0.00541723 0.00450555
38 2 8.48124 11.5269 9.39342 0.00202679 0.00865428 0.00756366
39 2 8.40916 11.0949 11.2391 -0.0231085 0.00814784 0.0307469
40 1 12.312 13.8719 5.88133 0.00020214 -0.0066043 -0.00200719
41 2 3.93605 4.85392 4.85124 -0.0150792 0.0129623 -0.00403869
42 2 11.5318 4.11817 5.30815 0.00392596 0.0163303 0.0243796
43 1 4.82787 5.0994 4.61655 -0.000580531 -0.00375905 0.00256166
44 2 3.23922 8.63897 3.45232 0.0131057 0.0168801 -0.0415622
45 2 6.63339 4.18129 3.97239 -0.0138184 0.012307 0.00358179
46 1 8.82434 11.9119 8.53952 0.000663191 -0.00194948 0.000257555
47 2 7.86706 11.6963 7.26449 -0.00157995 -0.00856837 -0.0205014
48 2 9.78573 11.6423 8.33414 0.0384611 -0.00900679 0.0158811
49 1 10.3991 6.97895 9.21253 0.000828439 0.000538207 0.00074553
50 2 10.0301 6.0801 9.06758 0.0111497 -0.0176995 -0.0178825
51 2 9.80486 7.33778 9.96876 0.0304951 0.00965806 0.032801
52 1 9.18687 10.0209 4.71642 -0.00275988 0.000800085 0.00678832
53 2 9.88058 9.65401 5.23392 0.00289264 0.00910291 -0.0136247
54 2 8.59195 10.412 5.3452 -0.0174829 0.00951154 -0.00589623
55 1 4.89797 11.6608 3.35681 0.00474943 0.00332339 -0.000740714
56 2 5.22596 10.7108 3.16555 0.0204079 -0.0148262 -0.00761877
57 2 4.41108 11.8539 2.58338 -0.00291184 0.0118291 -0.0025053
58 1 5.99483 9.91154 9.58216 0.00210205 -0.00209139 0.00801638
59 2 4.89493 12.7481 7.81296 0.000498351 0.0338302 0.0156334
60 2 7.04031 10.7927 10.4463 -0.0226504 0.0197356 -0.0079956
61 1 7.65925 4.59927 5.95744 -0.000796342 -0.00560452 -0.0121253
62 2 8.20385 4.94442 6.74387 0.028134 -0.00663798 -0.00799552
63 2 6.77914 5.03866 6.11551 0.0129224 -0.00390687 0.0208898
64 1 5.0634 11.7554 7.78607 -0.00375818 0.0046494 0.0039121
65 2 4.17318 11.2982 6.56421 -0.0345413 0.00531983 0.0137256
66 2 3.35113 4.46977 7.3709 0.00128398 -0.0252384 -0.0167441
67 1 11.4486 11.0922 8.05735 -0.0034949 -0.011209 0.00235885
68 2 12.2301 11.1163 7.49299 0.0054438 0.0299776 -0.0028242
69 2 11.737 10.5908 8.86468 -0.015507 0.000843043 -0.0240283
70 1 9.9657 4.372 4.08427 0.000423838 -0.00281827 3.25122e-05
71 2 9.99361 13.7883 3.18949 0.015592 -0.0039788 0.000633514
72 2 9.02213 4.27702 4.31585 0.00375812 0.0212382 0.0269832
73 1 10.4757 7.61026 6.38419 -0.00404032 -0.00407655 -0.00114314
74 2 10.3929 7.37041 7.35541 0.00119479 0.0231479 -0.00584794
75 2 11.4405 7.82203 6.18555 -0.00719434 -0.0101037 -0.018051
76 1 12.6989 5.39038 10.2759 -0.00177505 -7.40271e-05 -0.00126761
77 2 12.1008 5.99552 9.80436 0.0012964 0.0183914 0.0282704
78 2 4.02216 5.56945 11.4658 0.0154879 0.0169912 -0.0215917
79 1 12.3919 8.90332 9.76033 0.00586678 0.0048201 0.000608435
80 2 11.561 8.51012 9.42155 0.0286171 0.00575726 -0.0204002
81 2 5.45133 10.5452 9.07707 -0.0136656 -0.00206094 -0.0107693
82 1 7.06215 5.37243 10.9607 -0.00316005 -0.00115127 0.00488366
83 2 7.21836 4.62597 11.6185 0.0401047 -0.00559243 0.00227243
84 2 6.27454 5.77896 11.3753 0.0095133 0.0492082 -0.01164
85 1 10.538 13.2797 11.2235 0.00211141 0.00133213 -0.00603147
86 2 10.0775 12.6772 10.6904 0.0114309 -0.0121997 -0.00877396
87 2 12.119 4.64292 10.6548 -0.0199824 -0.0189425 0.00517363
88 1 7.23204 11.8681 6.42281 0.00115482 0.00470485 -0.00161145
89 2 6.07414 11.7315 7.00963 -0.0313709 -0.00116116 0.0384561
90 2 7.31112 12.9133 6.24036 -0.010137 0.0104975 -0.0029684
91 1 5.37127 6.88731 6.39825 -0.00061907 0.000387285 -0.0029082
92 2 3.92499 7.99832 6.01725 -0.00635188 -0.0245396 0.0125218
93 2 5.11758 6.17825 7.03185 -0.0134884 -0.000730226 0.0052422
94 1 4.13195 4.57636 8.03833 -0.00217512 -0.00538942 -0.00490619
95 2 3.72842 4.74762 8.91171 -0.0114092 -0.00644821 -0.00186897
96 2 5.55477 6.39899 5.5682 -0.0100303 -0.00532996 0.010035
ITEM: TIMESTEP
2
ITEM: NUMBER OF ATOMS
96
ITEM: BOX BOUNDS pp pp pp
2.9236100000000000e+00 1.2773600000000000e+01
4.0306300000000004e+00 1.3880599999999999e+01
2.1372399999999998e+00 1.1987200000000000e+01
ITEM: ATOMS id type x y z vx vy vz
1 1 7.04656 13.3856 3.36367 0.00539858 0.00054619 -0.00436511
2 2 6.50906 12.5895 3.44757 -0.0259235 0.00665622 0.0157893
3 2 11.411 12.912 11.29 -0.0203553 -0.0255922 0.0112732
4 1 3.57294 11.905 10.8002 -0.00678268 -0.000608209 -0.00439906
5 2 3.60691 10.9922 10.7746 -0.027756 -0.00328722 0.0119889
6 2 3.85873 12.1693 9.93334 -0.00727184 0.00125093 -0.00149605
7 1 12.5878 8.28077 2.66233 0.00162961 0.00580812 -0.00493425
8 2 11.8155 8.04085 3.10598 -0.0264777 -0.00614905 0.00440474
9 2 8.42766 7.88256 8.3569 0.0101578 -0.00371709 0.0037147
10 1 7.69107 8.36138 7.91759 -0.00117482 -0.00242967 0.000400041
11 2 7.00117 7.77481 7.61077 -0.0162127 0.0156033 -0.0101871
12 2 6.48247 9.37671 8.93445 -0.00328639 -0.0322029 -0.0226169
13 1 5.91364 9.11759 2.78947 -0.00267024 -0.00836803 0.00775757
14 2 5.99308 9.20559 11.6895 0.0121039 0.0391565 0.0395745
15 2 5.33609 8.34085 2.82159 0.00382232 0.0114088 0.00255111
16 1 8.82452 7.47741 11.3699 0.00239236 -0.00252516 0.00284995
17 2 9.22747 7.18305 2.36084 0.00979563 -0.0219763 -0.0168693
18 2 8.10243 6.81269 11.1463 0.011167 -0.0175493 0.0192447
19 1 4.35306 6.21548 2.2944 0.00119115 0.000717135 -0.00707183
20 2 3.53179 6.89334 2.35146 0.0217623 -0.00137274 -0.0107128
21 2 12.3511 8.8015 10.6575 0.0019215 0.0315626 0.00503293
22 1 9.75452 10.16 11.6641 -0.00166742 -0.00531784 -0.00179426
23 2 9.80116 10.2134 2.81159 0.0217538 0.0194078 0.0215052
24 2 9.3001 9.33072 11.4533 0.00648659 0.00191155 -0.0326982
25 1 3.13588 8.48943 5.7258 0.00550534 0.000529276 0.00123267
26 2 3.3324 9.46824 5.88933 -0.00373026 0.00176679 -0.00370963
27 2 4.79805 5.41144 3.65379 0.0269698 0.0241747 -0.0155772
28 1 10.1594 7.12305 3.82014 -0.00137501 0.00308331 -0.000715351
29 2 10.1467 6.15084 3.98257 0.00206763 0.0158762 0.000120923
30 2 9.63965 7.51964 4.54635 -0.0107198 0.0161751 0.0178094
31 1 3.48617 11.0343 5.83622 0.00129115 0.00376888 0.00173717
32 2 12.5951 12.9219 5.86113 -0.00410603 0.0177392 -0.0339584
33 2 3.91339 11.2262 4.97874 0.00118899 0.0058956 0.0166062
34 1 8.52825 5.09617 8.55052 0.00270423 0.00426416 0.00359274
35 2 8.73882 4.13141 8.73437 -0.0299475 0.0115447 -0.000454646
36 2 7.87964 5.27185 9.28527 0.00430849 0.0280294 0.0180737
37 1 7.6688 11.5884 10.8202 -0.00107773 0.0049675 0.00422294
38 2 8.48235 11.5309 9.39778 0.00250046 0.00721859 0.00966692
39 2 8.39841 11.099 11.2553 -0.0199166 0.008054 0.0340997
40 1 12.3121 13.8686 5.88033 0.000388176 -0.00667775 -0.00195574
41 2 3.92775 4.86008 4.8499 -0.0175797 0.0119062 -0.00169883
42 2 11.5339 4.12574 5.32046 0.00392338 0.0139809 0.0243606
43 1 4.82765 5.09749 4.61785 -0.000322598 -0.00385792 0.00260696
44 2 3.24573 8.64712 3.43078 0.0128857 0.0158242 -0.0440265
45 2 6.62648 4.18686 3.97417 -0.0133035 0.00968101 0.00302618
46 1 8.82477 11.911 8.53955 0.0011286 -0.00168738 -0.000133327
47 2 7.86627 11.6922 7.25425 -0.00152307 -0.00744949 -0.0204566
48 2 9.80389 11.6376 8.34269 0.0330306 -0.00964537 0.0184976
49 1 10.3994 6.97922 9.21294 0.000618353 0.000531683 0.000894927
50 2 10.0354 6.07123 9.0582 0.0102863 -0.016912 -0.0191787
51 2 9.82084 7.34244 9.98477 0.0333535 0.00836494 0.0307994
52 1 9.18549 10.0213 4.71976 -0.00279715 0.000884249 0.00652473
53 2 9.88217 9.65819 5.22778 0.00363919 0.00758184 -0.0105838
54 2 8.5832 10.4168 5.34246 -0.0172598 0.00966636 -0.00500976
55 1 4.90041 11.6623 3.35653 0.00501731 0.00271313 -0.000404286
56 2 5.23645 10.704 3.16246 0.0211091 -0.0116747 -0.00473227
57 2 4.40842 11.8611 2.58056 -0.00731515 0.0165538 -0.0082772
58 1 5.99585 9.91047 9.58629 0.00199367 -0.00218069 0.00838693
59 2 4.89512 12.7634 7.82096 0.000282645 0.0270786 0.0163538
60 2 7.02952 10.8043 10.4427 -0.0203034 0.0265583 -0.00621339
61 1 7.65882 4.59657 5.95144 -0.000853871 -0.00519416 -0.0118152
62 2 8.21725 4.94036 6.73919 0.0251392 -0.00978957 -0.0111054
63 2 6.78632 5.03624 6.12555 0.0155472 -0.00564275 0.0192633
64 1 5.06156 11.7578 7.78796 -0.00359209 0.00518118 0.00367183
65 2 4.1567 11.301 6.57194 -0.0311762 0.00598539 0.0171842
66 2 3.3533 4.45741 7.36378 0.00745935 -0.024107 -0.0115821
67 1 11.4468 11.0866 8.0586 -0.00352307 -0.0112172 0.00256688
68 2 12.2326 11.1312 7.49166 0.00441952 0.0294014 -0.00221035
69 2 11.7292 10.5914 8.85171 -0.0151638 0.00106726 -0.0268526
70 1 9.96588 4.37055 4.08423 0.000347495 -0.00294189 -0.000168874
71 2 10.0016 13.7868 3.19046 0.0161079 -0.00199498 0.00331469
72 2 9.02433 4.28763 4.32953 0.00507837 0.0209931 0.0273817
73 1 10.4737 7.60822 6.38369 -0.00399304 -0.0040748 -0.000900039
74 2 10.3941 7.38244 7.35114 0.00335991 0.0247758 -0.0106947
75 2 11.4361 7.81684 6.17701 -0.0103498 -0.0105893 -0.0160971
76 1 12.6979 5.39025 10.2752 -0.00210572 -0.00051661 -0.00127404
77 2 12.101 6.0047 9.81887 -0.00072081 0.0183597 0.0296911
78 2 4.03065 5.5779 11.4554 0.0182961 0.016526 -0.0200544
79 1 12.3948 8.90579 9.76044 0.00582269 0.00506892 -0.000182381
80 2 11.5757 8.51281 9.41128 0.0296685 0.00474162 -0.0205993
81 2 5.44427 10.5449 9.07097 -0.0139968 0.000460145 -0.0130729
82 1 7.06053 5.37183 10.9633 -0.00327274 -0.00124566 0.00530627
83 2 7.2386 4.62371 11.6187 0.0401737 -0.00304422 -0.00126215
84 2 6.27935 5.80363 11.3689 0.00994696 0.0487899 -0.0136036
85 1 10.5391 13.2804 11.2206 0.00226094 0.0017044 -0.00583443
86 2 10.0827 12.6701 10.6854 0.00933705 -0.0160738 -0.0109152
87 2 12.1094 4.63492 10.6566 -0.0180996 -0.0125079 0.00150004
88 1 7.23274 11.8704 6.42191 0.00166494 0.00446117 -0.00197188
89 2 6.05556 11.7311 7.03129 -0.0429298 -0.000308826 0.0480674
90 2 7.3061 12.9189 6.23904 -0.00982802 0.0112831 -0.00217486
91 1 5.37097 6.8875 6.39687 -0.000576184 0.000355881 -0.00258306
92 2 3.92207 7.98562 6.02362 -0.0054802 -0.025807 0.0128944
93 2 5.11059 6.17828 7.03422 -0.0143939 0.00106837 0.00413142
94 1 4.13081 4.57362 8.03575 -0.0023622 -0.00557396 -0.00536858
95 2 3.72261 4.74446 8.91083 -0.0118258 -0.00620358 -0.00185283
96 2 5.54941 6.39628 5.57282 -0.0112716 -0.0057051 0.00800986
ITEM: TIMESTEP
3
ITEM: NUMBER OF ATOMS
96
ITEM: BOX BOUNDS pp pp pp
2.9236100000000000e+00 1.2773600000000000e+01
4.0306300000000004e+00 1.3880599999999999e+01
2.1372399999999998e+00 1.1987200000000000e+01
ITEM: ATOMS id type x y z vx vy vz
1 1 7.04927 13.386 3.36151 0.00538333 0.000905551 -0.00425342
2 2 6.49564 12.5924 3.45533 -0.0272924 0.00557997 0.0149676
3 2 11.4011 12.8985 11.2955 -0.0187718 -0.0281164 0.0107933
4 1 3.5695 11.9048 10.798 -0.00696728 -8.02272e-05 -0.00423584
5 2 3.59307 10.9886 10.7801 -0.0275923 -0.010868 0.00954249
6 2 3.85542 12.1697 9.93217 -0.00593834 0.000184298 -0.00324674
7 1 12.5887 8.28375 2.65988 0.00210914 0.00606714 -0.00485887
8 2 11.8001 8.03682 3.10892 -0.0337569 -0.00940577 0.00683563
9 2 8.43146 7.88032 8.35798 0.00476314 -0.00517034 0.000479399
10 1 7.69051 8.36023 7.91784 -0.00109445 -0.00217815 0.000573802
11 2 6.9937 7.78193 7.60575 -0.013493 0.0128187 -0.00982006
12 2 6.48151 9.36035 8.92267 -0.00123033 -0.0323595 -0.0233959
13 1 5.91226 9.11338 2.79334 -0.00279426 -0.00841155 0.00780911
14 2 5.99932 9.22543 11.7092 0.0128646 0.0400785 0.0377418
15 2 5.33811 8.3468 2.823 0.00367327 0.0116151 0.00285715
16 1 8.82565 7.47615 11.3712 0.00211592 -0.00250894 0.0024716
17 2 9.23297 7.1719 2.35329 0.0124698 -0.0225006 -0.0130436
18 2 8.10838 6.80391 11.1561 0.0124364 -0.0175016 0.01985
19 1 4.3536 6.21595 2.29083 0.000987468 0.00113518 -0.00718016
20 2 3.54423 6.89189 2.34648 0.0273599 -0.00404365 -0.00916376
21 2 12.352 8.8169 10.6628 0.00155452 0.030037 0.0157144
22 1 9.7537 10.1573 11.6632 -0.00158894 -0.00513376 -0.00159743
23 2 9.8115 10.2227 2.82134 0.0192959 0.0171531 0.0165653
24 2 9.30351 9.33138 11.4375 0.00715869 0.000746104 -0.0300374
25 1 3.13863 8.4896 5.72639 0.0054941 0.000132085 0.00114448
26 2 3.33055 9.46857 5.88768 -0.00346293 -0.000626459 -0.00284552
27 2 4.8113 5.42361 3.64612 0.0257791 0.0240881 -0.0140799
28 1 10.1587 7.12459 3.81976 -0.00149948 0.00312082 -0.000784522
29 2 10.1477 6.15845 3.98279 0.00212307 0.0142586 0.000886729
30 2 9.63488 7.52769 4.55552 -0.00790203 0.015615 0.0182095
31 1 3.48675 11.0363 5.83703 0.000998258 0.00422201 0.00150788
32 2 12.5922 12.9315 5.84375 -0.00719099 0.0195209 -0.0355387
33 2 3.91447 11.2292 4.98659 0.00344261 0.00619542 0.0145038
34 1 8.5296 5.09821 8.55239 0.00266714 0.00394008 0.00390006
35 2 8.72373 4.13826 8.73348 -0.0302343 0.0152618 -0.0029679
36 2 7.88232 5.28601 9.29357 0.00669545 0.0285202 0.0148219
37 1 7.66815 11.5908 10.8222 -0.00148752 0.00457485 0.0039447
38 2 8.48375 11.5341 9.40309 0.00320566 0.00608285 0.0112571
39 2 8.38925 11.103 11.2732 -0.0168788 0.00746518 0.0372006
40 1 12.3123 13.8653 5.87937 0.000613241 -0.00663953 -0.00185451
41 2 3.91847 4.86583 4.84954 -0.0188852 0.0112963 -0.000166914
42 2 11.5357 4.13215 5.33251 0.00270635 0.0117562 0.0233839
43 1 4.82755 5.09554 4.61916 -0.000114085 -0.00393498 0.00256486
44 2 3.2521 8.65479 3.40829 0.0126176 0.0149926 -0.0452775
45 2 6.62009 4.19097 3.97541 -0.0117889 0.00657182 0.00147954
46 1 8.82547 11.9102 8.53938 0.00170562 -0.00148767 -0.000511709
47 2 7.86553 11.6888 7.24403 -0.00145625 -0.00603567 -0.0205262
48 2 9.81876 11.6327 8.35263 0.025501 -0.00961654 0.0213244
49 1 10.3997 6.97948 9.21342 0.000414402 0.000492904 0.00104466
50 2 10.0404 6.06319 9.0484 0.00925257 -0.0144527 -0.0195569
51 2 9.83822 7.34614 9.99956 0.0360571 0.00591314 0.0280275
52 1 9.18408 10.0218 4.72295 -0.00287883 0.000994016 0.00621156
53 2 9.88422 9.66159 5.22334 0.00459913 0.00600608 -0.00687897
54 2 8.57469 10.4216 5.34019 -0.016508 0.0095464 -0.00408194
55 1 4.90299 11.6635 3.3564 0.00527517 0.00205488 -0.000151356
56 2 5.24707 10.6991 3.16082 0.0209197 -0.00692826 -0.00190508
57 2 4.40377 11.8705 2.57511 -0.0106546 0.0203917 -0.0128363
58 1 5.99682 9.90935 9.59055 0.00189822 -0.00228237 0.00854902
59 2 4.89521 12.7751 7.82931 2.55674e-05 0.0196159 0.0170196
60 2 7.02001 10.8193 10.4401 -0.017635 0.0327442 -0.00438204
61 1 7.65839 4.59408 5.94562 -0.000833399 -0.00475784 -0.0114605
62 2 8.22899 4.93463 6.73276 0.0215942 -0.0132155 -0.0148872
63 2 6.79469 5.03302 6.13477 0.0175741 -0.00708674 0.0176298
64 1 5.05981 11.7606 7.78974 -0.00342249 0.00577468 0.00348652
65 2 4.14201 11.3042 6.58139 -0.0275718 0.00670479 0.0204054
66 2 3.35858 4.44566 7.35932 0.0134756 -0.0228241 -0.00626056
67 1 11.445 11.081 8.05991 -0.00359139 -0.011127 0.00261188
68 2 12.2345 11.1457 7.49078 0.00294648 0.0286535 -0.00105523
69 2 11.7218 10.5919 8.83783 -0.0138328 -2.10162e-05 -0.0275934
70 1 9.96604 4.36905 4.0841 0.000311628 -0.0030319 -0.000328776
71 2 10.0097 13.7863 3.19281 0.0158688 -0.000144984 0.00600943
72 2 9.02721 4.29801 4.34323 0.00646368 0.0203345 0.0270227
73 1 10.4717 7.60619 6.38329 -0.00395933 -0.00405549 -0.000740809
74 2 10.3963 7.39518 7.34472 0.00537655 0.0259832 -0.0142531
75 2 11.4302 7.81144 6.16945 -0.0130663 -0.0109117 -0.0142022
76 1 12.6968 5.38987 10.2746 -0.00246974 -0.00102101 -0.00125671
77 2 12.1001 6.01388 9.83405 -0.00283834 0.0184024 0.030937
78 2 4.04046 5.58597 11.4457 0.0207291 0.0154434 -0.0190754
79 1 12.3977 8.90839 9.76015 0.00586372 0.00534447 -0.000960001
80 2 11.5907 8.51486 9.40095 0.0297973 0.0032093 -0.0206148
81 2 5.43733 10.5456 9.06399 -0.0131233 0.00161749 -0.0141873
82 1 7.05887 5.37118 10.966 -0.00333059 -0.00131669 0.0056646
83 2 7.25853 4.62293 11.6172 0.038853 0.000239016 -0.00433025
84 2 6.28449 5.82775 11.3617 0.0107944 0.0470589 -0.0148113
85 1 10.5403 13.2814 11.2177 0.00235173 0.00202869 -0.00568328
86 2 10.0869 12.6612 10.6795 0.00731217 -0.0191516 -0.0125344
87 2 12.1009 4.63041 10.6563 -0.0154722 -0.00521477 -0.00251885
88 1 7.2337 11.8726 6.42083 0.00215342 0.00425049 -0.00231666
89 2 6.03121 11.7312 7.0577 -0.0540747 0.000354932 0.0571938
90 2 7.30129 12.9246 6.23818 -0.00932161 0.011025 -0.00114017
91 1 5.37069 6.88767 6.39567 -0.000559459 0.000325081 -0.00219507
92 2 3.91951 7.97252 6.03014 -0.00490136 -0.0261339 0.0130917
93 2 5.10319 6.17932 7.03598 -0.0151398 0.00322254 0.00283123
94 1 4.12959 4.57079 8.03296 -0.00253971 -0.00576467 -0.0057977
95 2 3.7166 4.74141 8.90985 -0.012208 -0.0060109 -0.0022614
96 2 5.54349 6.39329 5.57621 -0.012294 -0.0064055 0.00521993
ITEM: TIMESTEP
4
ITEM: NUMBER OF ATOMS
96
ITEM: BOX BOUNDS pp pp pp
2.9236100000000000e+00 1.2773600000000000e+01
4.0306300000000004e+00 1.3880599999999999e+01
2.1372399999999998e+00 1.1987200000000000e+01
ITEM: ATOMS id type x y z vx vy vz
1 1 7.05195 13.3865 3.35942 0.00524537 0.00124465 -0.00406896
2 2 6.48177 12.595 3.46254 -0.0277148 0.00509378 0.0135958
3 2 11.3922 12.8838 11.3008 -0.0166177 -0.0304806 0.0105996
4 1 3.56597 11.9049 10.7959 -0.00714481 0.000400004 -0.00403897
5 2 3.57931 10.9813 10.7842 -0.0274248 -0.0174086 0.00684029
6 2 3.85279 12.1695 9.93009 -0.00458875 -0.00120363 -0.0049918
7 1 12.5899 8.28684 2.65747 0.0023616 0.00623424 -0.00479672
8 2 11.7818 8.03145 3.11282 -0.037702 -0.0114835 0.00815297
9 2 8.43242 7.87739 8.35738 -0.000990912 -0.00656983 -0.00290343
10 1 7.68998 8.3592 7.91817 -0.00102197 -0.00192065 0.000756953
11 2 6.98768 7.78763 7.60095 -0.0104894 0.00995249 -0.00936648
12 2 6.48124 9.34435 8.91105 -0.000438898 -0.0308056 -0.0220185
13 1 5.91084 9.10918 2.79727 -0.00284271 -0.00833868 0.00802679
14 2 6.00594 9.24567 11.7273 0.0135819 0.0407782 0.0336473
15 2 5.33977 8.35246 2.82445 0.0023867 0.0103082 0.00271528
16 1 8.82664 7.4749 11.3724 0.00184381 -0.00251169 0.00209837
17 2 9.23994 7.16055 2.34779 0.0155906 -0.0226716 -0.00888629
18 2 8.11487 6.79519 11.1661 0.013342 -0.017332 0.0198135
19 1 4.35405 6.21662 2.28722 0.00089654 0.00152749 -0.00725416
20 2 3.55915 6.88929 2.3423 0.031604 -0.00585534 -0.00755066
21 2 12.3527 8.83153 10.6732 0.000748975 0.0284751 0.0249697
22 1 9.75293 10.1548 11.6625 -0.001495 -0.00488416 -0.00135101
23 2 9.82046 10.2305 2.82816 0.0162873 0.0139975 0.0100412
24 2 9.30726 9.33146 11.4233 0.00782681 -0.000451302 -0.0265085
25 1 3.14137 8.48956 5.72694 0.00548045 -0.000308801 0.00106284
26 2 3.32894 9.46761 5.88649 -0.00279497 -0.00328528 -0.00184866
27 2 4.82382 5.43553 3.63971 0.0240723 0.023198 -0.0106159
28 1 10.1579 7.12617 3.81936 -0.0016565 0.00324532 -0.00078658
29 2 10.1488 6.1651 3.98346 0.00213856 0.0121226 0.00185223
30 2 9.63175 7.53525 4.56456 -0.00421814 0.0142564 0.0173631
31 1 3.48716 11.0385 5.83773 0.00065961 0.0046491 0.00130854
32 2 12.5879 12.9414 5.82559 -0.00961865 0.0192404 -0.037086
33 2 3.91683 11.2324 4.99325 0.0062223 0.00670046 0.011968
34 1 8.53092 5.10011 8.55442 0.00258714 0.00371145 0.00422197
35 2 8.70859 4.14667 8.7314 -0.0301494 0.0176691 -0.00518956
36 2 7.88634 5.30037 9.30009 0.00951054 0.0287864 0.0111184
37 1 7.66731 11.593 10.8242 -0.00186271 0.00424917 0.00368724
38 2 8.48555 11.5369 9.40904 0.00411003 0.00528768 0.0122649
39 2 8.38153 11.1065 11.2925 -0.0142125 0.00648701 0.039883
40 1 12.3127 13.862 5.87848 0.000862999 -0.00648311 -0.0017114
41 2 3.90887 4.87138 4.84973 -0.0188528 0.0111383 0.000573163
42 2 11.5366 4.1375 5.34384 0.000371868 0.00974599 0.0215694
43 1 4.82754 5.09356 4.62042 3.74056e-05 -0.00398841 0.00243853
44 2 3.25834 8.66211 3.3855 0.0124077 0.0144786 -0.0452319
45 2 6.61469 4.19343 3.97565 -0.00937735 0.00321533 -0.000863514
46 1 8.82648 11.9095 8.53904 0.00236369 -0.00134531 -0.000855999
47 2 7.86481 11.6862 7.23372 -0.001566 -0.00434615 -0.0208829
48 2 9.82939 11.628 8.36402 0.0163985 -0.00903431 0.0241573
49 1 10.3998 6.97971 9.21398 0.000227634 0.000425477 0.00118752
50 2 10.0447 6.05678 9.03864 0.00806933 -0.0105525 -0.0190801
51 2 9.85689 7.34835 10.0128 0.0384516 0.00250968 0.0246792
52 1 9.18261 10.0223 4.72597 -0.0029916 0.00112183 0.00586916
53 2 9.88677 9.6642 5.2209 0.00554809 0.00449514 -0.00274462
54 2 8.56669 10.4264 5.33838 -0.0152422 0.00916441 -0.00316137
55 1 4.90568 11.6644 3.35638 0.00549979 0.00138393 1.4546e-06
56 2 5.25737 10.697 3.16056 0.0198805 -0.000880474 0.000737959
57 2 4.39776 11.8815 2.56773 -0.0126355 0.0231229 -0.0158277
58 1 5.99775 9.90819 9.59484 0.00181182 -0.00239652 0.00849176
59 2 4.89514 12.783 7.83798 -0.000441741 0.0122422 0.0176782
60 2 7.01188 10.8371 10.4383 -0.0148615 0.0379976 -0.00257805
61 1 7.65799 4.59181 5.93998 -0.000738372 -0.00431004 -0.0110889
62 2 8.23885 4.92715 6.72431 0.0177548 -0.0167357 -0.0190235
63 2 6.8039 5.02916 6.14318 0.0188088 -0.00812715 0.0160571
64 1 5.05814 11.7636 7.79145 -0.00326673 0.00639148 0.00338327
65 2 4.12913 11.3077 6.59234 -0.0241161 0.00734734 0.0229592
66 2 3.36678 4.43459 7.35752 0.0189092 -0.0214772 -0.00119608
67 1 11.4432 11.0755 8.06121 -0.00370051 -0.0109367 0.00249393
68 2 12.2356 11.1598 7.4906 0.00109949 0.0277469 0.000523469
69 2 11.7154 10.5914 8.82412 -0.0115286 -0.00247586 -0.0261585
70 1 9.9662 4.36752 4.0839 0.000319281 -0.00308097 -0.000434539
71 2 10.0175 13.7867 3.19647 0.0149209 0.00145635 0.00845602
72 2 9.03079 4.30796 4.35656 0.00781963 0.0192716 0.0259555
73 1 10.4697 7.60417 6.38295 -0.00395058 -0.00401935 -0.00067986
74 2 10.3995 7.40842 7.33689 0.00715774 0.0267204 -0.0161838
75 2 11.423 7.80592 6.16281 -0.0151168 -0.0110269 -0.0124868
76 1 12.6955 5.38922 10.274 -0.00285392 -0.0015577 -0.00122754
77 2 12.0982 6.0231 9.84981 -0.00496288 0.0185056 0.0320147
78 2 4.05138 5.59334 11.4363 0.022724 0.0137762 -0.0187082
79 1 12.4006 8.91113 9.75948 0.00597838 0.00563627 -0.00165263
80 2 11.6055 8.51602 9.39067 0.0291367 0.00122364 -0.0203659
81 2 5.43115 10.5466 9.05678 -0.01095 0.00125038 -0.0139495