ITEM: TIMESTEP
0
ITEM: NUMBER OF ATOMS
96
ITEM: BOX BOUNDS pp pp pp
2.9236100000000000e+00 1.2773600000000000e+01
4.0306300000000004e+00 1.3880599999999999e+01
2.1372399999999998e+00 1.1987200000000000e+01
ITEM: ATOMS id type x y z vx vy vz
1 1 7.03442 13.3862 3.37424 0.00393775 -0.000763158 -0.0037579
2 2 6.5563 12.5612 3.40889 -0.0102425 0.0159377 0.013648
3 2 11.459 12.9607 11.2553 -0.013072 -0.0139822 0.0174471
4 1 3.58885 11.9092 10.8115 -0.00604369 -0.00229043 -0.00438087
5 2 3.67638 10.9592 10.7336 -0.0270289 0.0223736 0.0190854
6 2 3.88351 12.1628 9.93062 -0.0116423 0.00313849 0.00112671
7 1 12.5884 8.26867 2.67568 -0.00220119 0.003793 -0.0061026
8 2 11.809 8.02612 3.11578 0.0320087 0.0181729 -0.0102187
9 2 8.38086 7.87992 8.33371 0.0212233 0.00708392 0.0115935
10 1 7.69422 8.36902 7.91736 -0.00112932 -0.00366745 -6.68311e-05
11 2 7.05341 7.72088 7.63636 -0.0234147 0.026045 -0.00926482
12 2 6.51763 9.43845 8.96273 -0.0272411 -0.0141881 0.00452238
13 1 5.91871 9.13672 2.76817 -0.00120369 -0.00653555 0.00987978
14 2 5.96847 9.11812 11.6099 0.00713136 0.0288424 0.0159127
15 2 5.33814 8.33086 2.82219 -0.00805206 -0.00720383 -0.00443011
16 1 8.81704 7.48388 11.3609 0.00344042 -0.0026478 0.0040522
17 2 9.21053 7.23291 2.41529 0.00714734 -0.017888 -0.0214555
18 2 8.08636 6.85529 11.1101 0.00107845 -0.0157667 0.00749113
19 1 4.34797 6.2162 2.3111 0.00292247 -0.00115 -0.00624446
20 2 3.52112 6.87475 2.38632 -0.0128679 0.0158677 -0.0165623
21 2 12.3503 8.71596 10.7029 -0.00325812 0.0348519 -0.0313287
22 1 9.75884 10.1734 11.6687 -0.00164619 -0.00509957 -0.00154053
23 2 9.74055 10.1658 2.7571 0.0235874 0.0131853 0.0110884
24 2 9.28798 9.31907 11.5365 0.00308784 0.00697424 -0.0282244
25 1 3.12228 8.4861 5.72213 0.00521439 0.00200061 0.00168368
26 2 3.33781 9.45737 5.90218 0.00127533 0.00333104 -0.00593421
27 2 4.72895 5.35985 3.67764 0.0269323 0.0149102 0.00242566
28 1 10.1626 7.11432 3.82049 -0.00132104 0.00428087 0.000738916
29 2 10.1425 6.10906 3.98409 0.00113696 0.0148273 -0.000384633
30 2 9.67126 7.48706 4.52184 -0.0109353 0.00669287 -0.00314064
31 1 3.48219 11.028 5.83015 0.00142907 0.00120335 0.00317327
32 2 12.5812 12.9088 5.93544 0.0153664 -0.0108775 -0.0253954
33 2 3.91554 11.2102 4.93558 0.000200223 0.00797015 0.0132538
34 1 8.52201 5.08277 8.54288 0.0020131 0.00650368 0.00279104
35 2 8.80789 4.13488 8.71836 -0.024494 -0.0144574 0.0129332
36 2 7.87392 5.20767 9.23063 0.00440276 0.0225939 0.0210316
37 1 7.66918 11.573 10.808 0.000471215 0.00739879 0.0053786
38 2 8.47762 11.5026 9.3886 0.00200007 0.0157001 -0.00258165
39 2 8.46695 11.0823 11.1914 -0.0334238 0.00288498 0.0171405
40 1 12.3119 4.03423 5.88517 -3.2986e-05 -0.00554922 -0.00168549
41 2 3.95166 4.82162 4.87325 -0.000593013 0.019585 -0.0190896
42 2 11.5317 4.07648 5.26594 -0.00627789 0.0246816 0.0154894
43 1 4.83021 5.10638 4.61216 -0.00172631 -0.00316979 0.00163769
44 2 3.21249 8.60008 3.5186 0.013889 0.0222936 -0.0224445
45 2 6.65586 4.15115 3.97095 -0.00583306 0.0155941 -0.00540911
46 1 8.82387 11.9172 8.5376 0.000261816 -0.00360263 0.00149707
47 2 7.86888 11.7158 7.30456 0.000808349 -0.0101229 -0.018543
48 2 9.70523 11.6524 8.30948 0.0340578 0.00139098 0.0106525
49 1 10.3966 6.97803 9.21157 0.00160886 0.000337663 0.000260162
50 2 10.0059 6.10701 9.09211 0.012154 -0.00523002 -0.00459008
51 2 9.75501 7.32223 9.9014 0.0198485 0.00233212 0.0320222
52 1 9.19263 10.0194 4.70234 -0.00315658 0.000793175 0.00700805
53 2 9.87458 9.6311 5.26678 0.00474271 0.0129986 -0.0160465
54 2 8.62443 10.3954 5.35945 -0.0138204 0.00647429 -0.00753628
55 1 4.88933 11.6524 3.35989 0.00407781 0.00475159 -0.0023
56 2 5.19356 10.7407 3.19126 0.0101841 -0.0102017 -0.0170715
57 2 4.39676 11.8518 2.56295 0.0161956 -0.00926762 0.0212886
58 1 5.99009 9.91542 9.56866 0.00266333 -0.00179842 0.00528186
59 2 4.89152 12.6663 7.78524 0.00422926 0.0401116 0.0117415
60 2 7.09031 10.7807 10.468 -0.0245003 -0.00607094 -0.0127371
61 1 7.66009 4.61178 5.98234 0.000136408 -0.0066999 -0.0124575
62 2 8.14165 4.94878 6.75512 0.0310487 0.000228387 -0.00733015
63 2 6.76532 5.03892 6.06789 0.00129829 0.00336497 0.0262654
64 1 5.07153 11.7474 7.7771 -0.00436448 0.00386454 0.0050882
65 2 4.25019 11.2887 6.54822 -0.0389002 0.00515204 0.00445274
66 2 3.3698 4.52311 7.41983 -0.0168712 -0.0272973 -0.0286617
67 1 11.4557 11.114 8.05442 -0.00369402 -0.0104349 0.000285824
68 2 12.2186 11.0553 7.49645 0.00480154 0.0304699 0.00140744
69 2 11.7632 10.5972 8.89046 -0.00863836 -0.0092478 0.000998416
70 1 9.96431 4.377 4.08327 0.00103737 -0.00216978 0.000951241
71 2 9.9696 13.8039 3.19627 0.00653539 -0.0110982 -0.00545843
72 2 9.01874 4.23626 4.26863 0.000278154 0.0185243 0.0182983
73 1 10.4839 7.61832 6.38779 -0.00410396 -0.00395366 -0.00249274
74 2 10.399 7.33239 7.34376 -0.0066954 0.0147465 0.0170215
75 2 11.4423 7.83988 6.22848 0.00414152 -0.00791403 -0.0239482
76 1 12.7015 5.38947 10.2781 -0.00102623 0.000603967 -0.000796419
77 2 12.0917 5.95813 9.7547 0.00687399 0.0191157 0.0209345
78 2 4.00381 5.5371 11.5173 0.00288928 0.0145025 -0.0300321
79 1 12.3793 8.89437 9.75664 0.0068732 0.00429762 0.00255941
80 2 11.5147 8.49817 9.46084 0.0153785 0.00488909 -0.018604
81 2 5.47186 10.5653 9.08393 -0.00613628 -0.0187304 0.00487501
82 1 7.06764 5.37432 10.9529 -0.00221124 -0.000791232 0.00299358
83 2 7.14805 4.64058 11.5988 0.0261502 -0.0050044 0.0165967
84 2 6.25451 5.68771 11.3862 0.0120792 0.0382641 0.00213088
85 1 10.5348 13.2785 11.2365 0.00104784 -9.3905e-05 -0.00686232
86 2 10.0483 12.6847 10.6989 0.0160946 0.00392254 -0.000680901
87 2 12.1587 4.69608 10.6347 -0.0156661 -0.0284473 0.0121554
88 1 7.23188 11.8577 6.42462 -0.0010383 0.00563237 -0.0002605
89 2 6.09287 11.7373 6.97083 0.0106036 -0.00444251 0.00119858
90 2 7.33145 12.8992 6.24782 -0.00965333 0.00346291 -0.00392103
91 1 5.37288 6.88645 6.40481 -0.00106974 0.0004282 -0.00339349
92 2 3.94219 8.03633 5.99432 -0.0106557 -0.0114452 0.0104234
93 2 5.13965 6.18333 7.01912 -0.00800642 -0.0025822 0.00632676
94 1 4.13576 4.5865 8.04634 -0.00182231 -0.00480541 -0.0032307
95 2 3.74973 4.76192 8.91873 -0.0101269 -0.0080163 -0.00645134
96 2 5.56799 6.41058 5.54621 -0.00239763 -0.00713778 0.00944621
ITEM: TIMESTEP
1
ITEM: NUMBER OF ATOMS
96
ITEM: BOX BOUNDS pp pp pp
2.9236100000000000e+00 1.2773600000000000e+01
4.0306300000000004e+00 1.3880599999999999e+01
2.1372399999999998e+00 1.1987200000000000e+01
ITEM: ATOMS id type x y z vx vy vz
1 1 7.0365 13.3858 3.37229 0.00437501 -0.000634166 -0.00401619
2 2 6.55027 12.5688 3.416 -0.0138927 0.014332 0.014676
3 2 11.4514 12.9532 11.2636 -0.0166904 -0.016036 0.0158645
4 1 3.58581 11.9081 10.8093 -0.00613784 -0.00221187 -0.00451267
5 2 3.66268 10.9704 10.7431 -0.0275977 0.0210382 0.0184932
6 2 3.87777 12.1644 9.93143 -0.0111956 0.00310003 0.00181103
7 1 12.5875 8.27066 2.67275 -0.00150564 0.00420362 -0.00568734
8 2 11.8227 8.03419 3.11086 0.0215091 0.0136718 -0.00873557
9 2 8.39183 7.88275 8.33961 0.0218811 0.00436314 0.0115654
10 1 7.69362 8.36724 7.91733 -0.00124419 -0.00342888 -4.10456e-05
11 2 7.04175 7.73364 7.63153 -0.0229641 0.0247226 -0.00993271
12 2 6.50531 9.4303 8.96331 -0.0218222 -0.0186164 -0.00233456
13 1 5.91802 9.13332 2.77294 -0.00156101 -0.00705923 0.00922262
14 2 5.97235 9.13333 11.6199 0.00833691 0.031802 0.0238078
15 2 5.33493 8.32853 2.82049 -0.00479523 -0.00214939 -0.00246944
16 1 8.81873 7.48256 11.3629 0.00330659 -0.00262406 0.00395582
17 2 9.21379 7.22378 2.40404 0.00619458 -0.0186627 -0.0229442
18 2 8.08742 6.84718 11.1147 0.0032419 -0.0165118 0.0107339
19 1 4.34936 6.21569 2.30793 0.00259557 -0.000852236 -0.00642063
20 2 3.51614 6.88203 2.37825 -0.00656574 0.0128889 -0.0156564
21 2 12.3492 8.73357 10.6874 -0.00138957 0.0352256 -0.0291955
22 1 9.758 10.1708 11.6679 -0.00171543 -0.00529679 -0.00176232
23 2 9.75266 10.1734 2.76461 0.0245795 0.0168281 0.0179581
24 2 9.28972 9.32239 11.5214 0.00385034 0.00620263 -0.0316124
25 1 3.12493 8.48704 5.72295 0.00535435 0.00175758 0.00160403
26 2 3.33795 9.45945 5.89924 -0.000536388 0.0046251 -0.00577065
27 2 4.74256 5.36798 3.67738 0.0274563 0.0175597 -0.00334754
28 1 10.162 7.11636 3.82075 -0.00127484 0.00388714 0.000327213
29 2 10.1431 6.11689 3.9838 0.00138041 0.0162162 -0.000686976
30 2 9.66541 7.49123 4.52186 -0.0123067 0.00983969 0.00298624
31 1 3.48296 11.0287 5.83166 0.00161505 0.00174257 0.00287464
32 2 12.588 12.905 5.92232 0.0116133 -0.0040615 -0.0271104
33 2 3.91528 11.214 4.94301 -0.000943702 0.00714055 0.0160018
34 1 8.52309 5.08592 8.54427 0.00227075 0.00606714 0.00282257
35 2 8.79531 4.12876 8.72426 -0.0258535 -0.00961299 0.0105145
36 2 7.87553 5.21931 9.24165 0.0025042 0.0239476 0.0225423
37 1 7.66939 11.5766 10.8107 0.00031897 0.00692555 0.00522422
38 2 8.47858 11.51 9.38784 0.00183936 0.0139719 -0.00025265
39 2 8.45063 11.0843 11.2008 -0.0315517 0.00498923 0.0204399
40 1 12.3119 4.03137 5.88428 -4.99886e-05 -0.00588024 -0.00183933
41 2 3.95062 4.83102 4.86475 -0.00393441 0.0178949 -0.0148891
42 2 11.5295 4.08845 5.27457 -0.00262163 0.0229914 0.018797
43 1 4.8294 5.10475 4.61306 -0.00147157 -0.00334529 0.00195401
44 2 3.21931 8.61085 3.50587 0.0135007 0.020803 -0.0282647
45 2 6.65202 4.15909 3.96931 -0.00918091 0.0158669 -0.00157774
46 1 8.82395 11.9155 8.5383 0.000135097 -0.00311052 0.00127602
47 2 7.86894 11.7107 7.29496 -0.000345435 -0.0101549 -0.0196013
48 2 9.72381 11.6521 8.31481 0.0390953 -0.00239198 0.0109874
49 1 10.3974 6.97821 9.21172 0.00142654 0.00040032 0.000355919
50 2 10.0121 6.10307 9.0887 0.0123551 -0.0101639 -0.00886245
51 2 9.7655 7.3244 9.91785 0.0222365 0.00587799 0.0334488
52 1 9.1911 10.0198 4.70588 -0.00297846 0.000744726 0.00710157
53 2 9.87656 9.6375 5.25837 0.00345222 0.0124435 -0.017053
54 2 8.61712 10.3989 5.35562 -0.015289 0.00753089 -0.00757487
55 1 4.89137 11.6547 3.35882 0.00414199 0.00457944 -0.00194933
56 2 5.19953 10.7346 3.18311 0.0135558 -0.0137082 -0.0152806
57 2 4.40399 11.8483 2.57257 0.0121835 -0.00441064 0.016473
58 1 5.99138 9.9145 9.57149 0.00251329 -0.00187157 0.00603695
59 2 4.89314 12.6874 7.79141 0.00256716 0.0426533 0.0128907
60 2 7.07765 10.7789 10.4617 -0.0255448 -0.000687668 -0.0120984
61 1 7.66007 4.60846 5.97607 -0.000183227 -0.00653227 -0.0125431
62 2 8.1575 4.94883 6.75212 0.0318526 -0.000420044 -0.00540124
63 2 6.76656 5.04023 6.08077 0.00388719 0.00175136 0.0251675
64 1 5.06939 11.7493 7.77957 -0.00421045 0.00380561 0.00478519
65 2 4.23035 11.2911 6.5506 -0.0397084 0.00468009 0.00556334
66 2 3.36188 4.50946 7.40558 -0.0140474 -0.0271851 -0.0275737
67 1 11.4539 11.1087 8.05473 -0.00360821 -0.0107059 0.000930759
68 2 12.2212 11.0706 7.49656 0.00557673 0.0306177 -0.000662092
69 2 11.7582 10.5935 8.8891 -0.0113258 -0.00585819 -0.00638323
70 1 9.96478 4.37587 4.08369 0.000849567 -0.00233618 0.000735523
71 2 9.97372 13.7987 3.19355 0.00969709 -0.00962923 -0.00499314
72 2 9.01898 4.24584 4.27862 0.000810423 0.0196757 0.0213963
73 1 10.4818 7.61633 6.38663 -0.00413141 -0.00399566 -0.00215191
74 2 10.396 7.34026 7.35108 -0.00508194 0.0168248 0.0118042
75 2 11.444 7.83584 6.21669 0.00207891 -0.00833626 -0.0229971
76 1 12.701 5.3898 10.2776 -0.00110852 0.000631898 -0.000997413
77 2 12.095 5.96764 9.76569 0.00596801 0.0188962 0.0229848
78 2 4.00599 5.54459 11.5027 0.00594481 0.0154613 -0.02801
79 1 12.3826 8.89652 9.7579 0.00651809 0.00434267 0.00235353
80 2 11.5236 8.50085 9.45137 0.0197907 0.00571081 -0.0192066
81 2 5.46833 10.5569 9.08534 -0.00817402 -0.0144864 0.000653971
82 1 7.06646 5.37392 10.9545 -0.0025061 -0.000846483 0.00343776
83 2 7.16271 4.63721 11.6065 0.031688 -0.00735574 0.0136129
84 2 6.26003 5.70822 11.3862 0.0105476 0.042941 -0.00196143
85 1 10.5354 13.2785 11.2331 0.00135643 0.00020662 -0.00669036
86 2 10.0564 12.6859 10.6983 0.0158857 0.000486872 -0.00209344
87 2 12.1499 4.68142 10.6409 -0.0188167 -0.0290799 0.0119138
88 1 7.23151 11.8605 6.42442 -0.000467528 0.0054434 -0.000568597
89 2 6.09594 11.7352 6.97358 0.00122436 -0.00373536 0.0100281
90 2 7.3265 12.9013 6.24583 -0.0100511 0.00516008 -0.00395052
91 1 5.37239 6.88667 6.4031 -0.000918475 0.000441519 -0.00339718
92 2 3.93705 8.02951 5.99964 -0.00975569 -0.0156488 0.010905
93 2 5.13521 6.18185 7.02242 -0.00966232 -0.00302089 0.00665619
94 1 4.13486 4.58407 8.04465 -0.00180709 -0.00492334 -0.00357486
95 2 3.74464 4.75803 8.91599 -0.0103153 -0.00754562 -0.00468062
96 2 5.56619 6.40725 5.55135 -0.00469485 -0.0062778 0.0108025
ITEM: TIMESTEP
2
ITEM: NUMBER OF ATOMS
96
ITEM: BOX BOUNDS pp pp pp
2.9236100000000000e+00 1.2773600000000000e+01
4.0306300000000004e+00 1.3880599999999999e+01
2.1372399999999998e+00 1.1987200000000000e+01
ITEM: ATOMS id type x y z vx vy vz
1 1 7.0388 13.3856 3.37022 0.0047625 -0.000422837 -0.00421663
2 2 6.54241 12.5755 3.42357 -0.0174949 0.0123318 0.0154743
3 2 11.4423 12.9447 11.2712 -0.0192929 -0.0182304 0.0143931
4 1 3.58271 11.907 10.807 -0.00626657 -0.00197719 -0.00457967
5 2 3.64878 10.9802 10.7521 -0.0278845 0.0173685 0.0174361
6 2 3.87231 12.1659 9.93243 -0.0105231 0.00290489 0.00184293
7 1 12.5869 8.27287 2.66999 -0.00069184 0.00463898 -0.00538351
8 2 11.8305 8.03979 3.10704 0.00906381 0.00852064 -0.00600721
9 2 8.40274 7.88428 8.34528 0.0209624 0.00190473 0.0106785
10 1 7.69298 8.36559 7.91732 -0.00129583 -0.00318049 1.99576e-05
11 2 7.03045 7.7456 7.62643 -0.021999 0.0229107 -0.0103347
12 2 6.49581 9.41983 8.9604 -0.0162345 -0.023166 -0.00909963
13 1 5.91715 9.12966 2.77739 -0.00190399 -0.00752981 0.00864541
14 2 5.97681 9.14992 11.6337 0.00943219 0.0343128 0.0306417
15 2 5.33334 8.32871 2.81972 -0.00169569 0.00260922 -0.000728975
16 1 8.82035 7.48126 11.3649 0.0031271 -0.00260186 0.00377738
17 2 9.21672 7.21425 2.39235 0.00593453 -0.0195009 -0.0231917
18 2 8.0896 6.83878 11.1208 0.00547248 -0.0170067 0.0136441
19 1 4.35057 6.21535 2.30468 0.00222208 -0.000505522 -0.00659997
20 2 3.51455 6.88764 2.37066 0.000516503 0.0093708 -0.0146307
21 2 12.3489 8.75119 10.6737 0.000116714 0.0349563 -0.0239291
22 1 9.75712 10.1681 11.6669 -0.00175118 -0.0054201 -0.00190697
23 2 9.76513 10.1826 2.77506 0.0249485 0.0193126 0.0226211
24 2 9.29183 9.32527 11.5049 0.00454335 0.00526806 -0.0337803
25 1 3.12763 8.48786 5.72373 0.00544268 0.00149442 0.00151523
26 2 3.33727 9.462 5.89641 -0.00197036 0.00514626 -0.0054679
27 2 4.75641 5.37741 3.67429 0.0278193 0.0200021 -0.00855114
28 1 10.1613 7.11821 3.82082 -0.00124593 0.00355414 -4.0029e-05
29 2 10.1439 6.12528 3.9834 0.00161002 0.0170574 -0.000812609
30 2 9.65895 7.4969 4.52483 -0.0132061 0.0125601 0.00844652
31 1 3.48381 11.0297 5.83302 0.00168947 0.00227374 0.00257159
32 2 12.5928 12.9047 5.90833 0.00757481 0.00272527 -0.0288718
33 2 3.9146 11.2173 4.95158 -0.00147812 0.006479 0.0177518
34 1 8.52428 5.08884 8.5457 0.00247271 0.00559461 0.00292308
35 2 8.78204 4.12527 8.72887 -0.0271771 -0.00417191 0.00785511
36 2 7.87642 5.23162 9.25317 0.00155737 0.0252277 0.022981
37 1 7.6695 11.5799 10.8132 6.37407e-05 0.00641957 0.00502013
38 2 8.47946 11.5166 9.38835 0.00174173 0.0121376 0.00238128
39 2 8.4354 11.0873 11.2118 -0.029111 0.00661069 0.0238387
40 1 12.3119 13.8783 5.88333 -1.90494e-05 -0.00618385 -0.00194781
41 2 3.94773 4.83951 4.85836 -0.00779945 0.0161008 -0.0108114
42 2 11.5291 4.09947 5.28474 0.000479151 0.0209571 0.021504
43 1 4.82874 5.10303 4.61411 -0.00117831 -0.003502 0.00222444
44 2 3.22599 8.62088 3.49034 0.0133099 0.0193886 -0.0335271
45 2 6.64668 4.16702 3.96937 -0.0117121 0.0154568 0.00128056
46 1 8.82401 11.9141 8.53888 0.000156193 -0.00266488 0.00098412
47 2 7.86853 11.7056 7.28496 -0.0010936 -0.00991416 -0.0202161
48 2 9.74433 11.65 8.32047 0.0416146 -0.00540937 0.0120001
49 1 10.398 6.97843 9.21193 0.00123619 0.00046394 0.000471191
50 2 10.0183 6.09685 9.08325 0.0122258 -0.0141385 -0.0126185
51 2 9.77725 7.32811 9.93485 0.0248413 0.00838229 0.0341171
52 1 9.18965 10.0201 4.70944 -0.00284943 0.000728584 0.00709118
53 2 9.87803 9.64354 5.24973 0.00271227 0.011595 -0.0169707
54 2 8.60914 10.4029 5.35188 -0.016441 0.0084158 -0.00726127
55 1 4.89347 11.657 3.35794 0.00428736 0.00427805 -0.0015489
56 2 5.20712 10.727 3.17598 0.0165092 -0.0158008 -0.0130281
57 2 4.40894 11.8474 2.57942 0.00734101 0.000976655 0.0105032
58 1 5.9926 9.91355 9.5747 0.00236442 -0.00194122 0.00678756
59 2 4.89409 12.709 7.79813 0.00148036 0.0422163 0.0139171
60 2 7.06477 10.78 10.4559 -0.0254776 0.00568934 -0.0110363
61 1 7.65991 4.60525 5.9698 -0.000453966 -0.00628721 -0.0125091
62 2 8.1735 4.94836 6.74972 0.0316227 -0.00182452 -0.00493191
63 2 6.76921 5.04067 6.09306 0.00684057 -7.81695e-05 0.0238863
64 1 5.06732 11.7512 7.78189 -0.00406288 0.00392873 0.0044814
65 2 4.21048 11.2934 6.55378 -0.0391065 0.00458676 0.0076189
66 2 3.35575 4.49592 7.39226 -0.00986058 -0.0268062 -0.0250633
67 1 11.4521 11.1033 8.05535 -0.00354291 -0.0109377 0.00151425
68 2 12.2242 11.0859 7.49579 0.00600133 0.0305868 -0.00208258
69 2 11.7519 10.5913 8.88408 -0.0134713 -0.00286159 -0.0133527
70 1 9.96516 4.37466 4.08401 0.000680476 -0.00250583 0.000500459
71 2 9.9793 13.7943 3.19128 0.012325 -0.00789726 -0.00372082
72 2 9.01955 4.25594 4.29003 0.00158578 0.0205436 0.0239327
73 1 10.4798 7.61432 6.38564 -0.00412261 -0.00403348 -0.00179498
74 2 10.3939 7.34921 7.35556 -0.00314721 0.0190308 0.00591012
75 2 11.4444 7.83154 6.20548 -0.000683127 -0.00889863 -0.0216248
76 1 12.7004 5.3901 10.2771 -0.00126525 0.000520727 -0.00113879
77 2 12.0977 5.97703 9.77768 0.00470552 0.0186782 0.0249059
78 2 4.00975 5.55256 11.4893 0.00917061 0.0163197 -0.0257743
79 1 12.3858 8.89871 9.75899 0.00622132 0.00444771 0.00193599
80 2 11.5345 8.50388 9.44163 0.0235984 0.00619529 -0.0196875
81 2 5.46369 10.5508 9.08458 -0.0103886 -0.00996133 -0.00359298
82 1 7.06513 5.37347 10.9563 -0.00277079 -0.000936777 0.00392258
83 2 7.17974 4.63322 11.6124 0.0357865 -0.00791082 0.00997294
84 2 6.26506 5.73065 11.3842 0.00981257 0.0462036 -0.00569823
85 1 10.5362 13.2787 11.2298 0.00164777 0.00055757 -0.00648146
86 2 10.0642 12.6852 10.6968 0.0149254 -0.00355067 -0.00407343
87 2 12.1399 4.667 10.6466 -0.0205265 -0.0275676 0.0105774
88 1 7.23141 11.8631 6.42405 8.83497e-05 0.00521459 -0.000900677
89 2 6.09409 11.7336 6.98086 -0.00901152 -0.00293117 0.0192462
90 2 7.3214 12.9044 6.24387 -0.0102592 0.00709654 -0.00382449
91 1 5.37196 6.88689 6.40141 -0.000790831 0.000435486 -0.00331992
92 2 3.93243 8.02068 6.00523 -0.00862616 -0.0193491 0.0114609
93 2 5.12999 6.18031 7.02578 -0.0111305 -0.00284389 0.00656611
94 1 4.13395 4.58158 8.04277 -0.0018739 -0.00506076 -0.00398415
95 2 3.73941 4.75437 8.91405 -0.0106164 -0.00712035 -0.00329077
96 2 5.5633 6.4043 5.55701 -0.00674837 -0.00564364 0.0114217
ITEM: TIMESTEP
3
ITEM: NUMBER OF ATOMS
96
ITEM: BOX BOUNDS pp pp pp
2.9236100000000000e+00 1.2773600000000000e+01
4.0306300000000004e+00 1.3880599999999999e+01
2.1372399999999998e+00 1.1987200000000000e+01
ITEM: ATOMS id type x y z vx vy vz
1 1 7.04127 13.3854 3.36807 0.0050755 -0.000142012 -0.00434636
2 2 6.53278 12.5812 3.43147 -0.0208413 0.0102188 0.0159749
3 2 11.4321 12.935 11.278 -0.0207623 -0.0205736 0.0131016
4 1 3.57954 11.9061 10.8047 -0.00642306 -0.001606 -0.00457998
5 2 3.6348 10.9877 10.7605 -0.027958 0.0116628 0.0159695
6 2 3.86725 12.1673 9.93328 -0.00962242 0.00255732 0.00122834
7 1 12.5868 8.2753 2.66736 0.000158837 0.0050706 -0.00517384
8 2 11.8318 8.04271 3.10485 -0.00401517 0.00317551 -0.0025266
9 2 8.4128 7.88466 8.35029 0.0185558 -0.000248099 0.00898796
10 1 7.69232 8.36406 7.91735 -0.00129222 -0.00292952 0.000116307
11 2 7.01975 7.75655 7.62119 -0.0205257 0.0207226 -0.0104878
12 2 6.48907 9.40713 8.95421 -0.0110131 -0.0272745 -0.0151067
13 1 5.91611 9.12579 2.78158 -0.00221383 -0.00791823 0.00818868
14 2 5.98178 9.16765 11.6506 0.0104137 0.0363512 0.0358387
15 2 5.33323 8.33114 2.81976 0.000949242 0.00667847 0.000722648
16 1 8.82186 7.47996 11.3667 0.00290893 -0.00257734 0.00352382
17 2 9.21972 7.20428 2.38085 0.00644558 -0.0203752 -0.0221845
18 2 8.09289 6.83018 11.1283 0.00761509 -0.0173168 0.0160942
19 1 4.35158 6.21519 2.30133 0.00183962 -0.00011964 -0.00677414
20 2 3.51665 6.8914 2.36362 0.00791122 0.00561715 -0.0134652
21 2 12.3493 8.76852 10.6634 0.00119633 0.034158 -0.0159183
22 1 9.75624 10.1654 11.666 -0.00175338 -0.00546473 -0.00196026
23 2 9.77761 10.1928 2.78723 0.0246201 0.0205742 0.0247801
24 2 9.29427 9.32765 11.4876 0.00519107 0.00420176 -0.0346777
25 1 3.13037 8.48854 5.72447 0.00548984 0.0012057 0.00142116
26 2 3.33598 9.46459 5.89377 -0.00298941 0.00481183 -0.00502346
27 2 4.77038 5.38798 3.66883 0.0279214 0.0220296 -0.0126033
28 1 10.1607 7.11991 3.82071 -0.00124814 0.00330162 -0.000343002
29 2 10.1447 6.13394 3.98299 0.0018084 0.0172951 -0.000730304
30 2 9.6522 7.50379 4.53031 -0.0133492 0.0146166 0.0128788
31 1 3.48465 11.031 5.83423 0.0016537 0.00279147 0.00227508
32 2 12.5956 12.9078 5.89345 0.00346649 0.00894742 -0.030621
33 2 3.91381 11.2204 4.96076 -0.00131581 0.00603431 0.0184064
34 1 8.52556 5.09151 8.5472 0.00261229 0.00511708 0.0030906
35 2 8.76813 4.12459 8.73211 -0.0283589 0.00144618 0.00506495
36 2 7.87709 5.24454 9.26463 0.00159145 0.0263642 0.0223243
37 1 7.66946 11.583 10.8157 -0.00027232 0.00590825 0.00477631
38 2 8.48032 11.5222 9.39022 0.00178462 0.0103239 0.00507548
39 2 8.42152 11.0909 11.2246 -0.0262395 0.00767546 0.0272872
40 1 12.3119 13.8752 5.88234 6.49466e-05 -0.00643312 -0.00200465
41 2 3.94283 4.84712 4.85394 -0.0116792 0.0144007 -0.00712363
42 2 11.53 4.10941 5.29608 0.00273375 0.0186955 0.0234082
43 1 4.82823 5.10125 4.61529 -0.00087287 -0.00364005 0.00243146
44 2 3.23262 8.63024 3.47234 0.0132245 0.0180793 -0.0380145
45 2 6.6403 4.17455 3.97059 -0.0132843 0.0142676 0.00301654
46 1 8.82411 11.9129 8.53929 0.000333736 -0.00227586 0.000637687
47 2 7.86785 11.7008 7.27475 -0.00147751 -0.00938842 -0.0204748
48 2 9.76543 11.6466 8.32681 0.0413982 -0.00761274 0.0136643
49 1 10.3986 6.97868 9.21219 0.00103619 0.00051357 0.000602532
50 2 10.0243 6.08893 9.07608 0.0118094 -0.0167412 -0.0156712
51 2 9.79034 7.33278 9.95197 0.0276202 0.00967036 0.0339172
52 1 9.18825 10.0205 4.71297 -0.00277607 0.000747171 0.00698275
53 2 9.87928 9.64909 5.2414 0.00254308 0.0104657 -0.0158017
54 2 8.60068 10.4073 5.34836 -0.0171943 0.00908707 -0.00667406
55 1 4.89566 11.659 3.35727 0.00449751 0.00385351 -0.00113369
56 2 5.21604 10.7188 3.17008 0.0188433 -0.0162106 -0.0104293
57 2 4.41133 11.8493 2.58307 0.00213793 0.00651836 0.00396178
58 1 5.99375 9.91256 9.57827 0.00222583 -0.00201284 0.00746748
59 2 4.89462 12.7296 7.80533 0.000841903 0.0391028 0.0148276
60 2 7.05217 10.7846 10.4507 -0.0244479 0.0126424 -0.00963612
61 1 7.65962 4.60217 5.96357 -0.0006615 -0.00597378 -0.0123641
62 2 8.18912 4.947 6.74719 0.0303523 -0.0039333 -0.00585457
63 2 6.7734 5.04015 6.10466 0.00993555 -0.0020074 0.0224478
64 1 5.06532 11.7532 7.78405 -0.00391436 0.00421944 0.00418675
65 2 4.19124 11.2957 6.55821 -0.0372943 0.00482307 0.0104264
66 2 3.35202 4.48265 7.38052 -0.00462543 -0.026152 -0.0213547
67 1 11.4503 11.0978 8.05624 -0.00350332 -0.0111111 0.00200034
68 2 12.2272 11.1012 7.49448 0.00597281 0.0303736 -0.0028006
69 2 11.7447 10.5906 8.87574 -0.0149095 -0.000540953 -0.0193937
70 1 9.96546 4.37337 4.0842 0.000536535 -0.00266976 0.000260836
71 2 9.98604 13.7908 3.18983 0.0143169 -0.00598187 -0.00178446
72 2 9.02057 4.26639 4.30255 0.00257908 0.0210787 0.0258193
73 1 10.4777 7.6123 6.38483 -0.00408817 -0.00406184 -0.0014497
74 2 10.3929 7.35929 7.35699 -0.00101305 0.0211907 -0.00014804
75 2 11.4433 7.82694 6.19506 -0.0038717 -0.00951531 -0.0199359
76 1 12.6997 5.39032 10.2765 -0.00149094 0.000279549 -0.00122602
77 2 12.0997 5.98631 9.7906 0.00313031 0.0185004 0.0266738
78 2 4.01516 5.56091 11.477 0.012403 0.0168849 -0.0235599
79 1 12.3889 8.90097 9.75983 0.00600086 0.00460955 0.00133729
80 2 11.5471 8.50705 9.43168 0.0265805 0.00623259 -0.020085
81 2 5.45794 10.547 9.08174 -0.0123537 -0.00566279 -0.00751237
82 1 7.06369 5.37298 10.9584 -0.00299161 -0.0010439 0.00441453
83 2 7.1985 4.6293 11.6164 0.0386157 -0.00725045 0.00609185
84 2 6.26984 5.75442 11.3805 0.00948462 0.048312 -0.00896994
85 1 10.537 13.2791 11.2266 0.0019042 0.000940765 -0.00625449
86 2 10.0713 12.6823 10.6942 0.0133704 -0.00789877 -0.00639431
87 2 12.1294 4.65386 10.6514 -0.0208623 -0.0240879 0.00827015
88 1 7.23159 11.8657 6.42352 0.000629014 0.00496243 -0.00125084
89 2 6.08693 11.7323 6.99283 -0.0199545 -0.00206438 0.0287707
90 2 7.31624 12.9084 6.24201 -0.0102781 0.00899005 -0.0035124
91 1 5.37159 6.88711 6.39978 -0.000690477 0.000415508 -0.00315649
92 2 3.92842 8.01016 6.0111 -0.00744039 -0.0223589 0.0120231
93 2 5.12408 6.17901 7.02898 -0.0124046 -0.0020629 0.00607779
94 1 4.13299 4.57901 8.04066 -0.0020041 -0.00521694 -0.00443619
95 2 3.73402 4.75091 8.9127 -0.0109937 -0.00675294 -0.00234507
96 2 5.55944 6.40161 5.56278 -0.00852891 -0.00531228 0.0111828
ITEM: TIMESTEP
4
ITEM: NUMBER OF ATOMS
96
ITEM: BOX BOUNDS pp pp pp
2.9236100000000000e+00 1.2773600000000000e+01
4.0306300000000004e+00 1.3880599999999999e+01
2.1372399999999998e+00 1.1987200000000000e+01
ITEM: ATOMS id type x y z vx vy vz
1 1 7.04387 13.3854 3.36588 0.00529277 0.000188522 -0.00439693
2 2 6.52157 12.5858 3.43954 -0.0237159 0.00825802 0.0161041
3 2 11.4215 12.9241 11.2843 -0.0210847 -0.0230467 0.0120478
4 1 3.57629 11.9054 10.8024 -0.00659835 -0.00113365 -0.00451711
5 2 3.62082 10.9919 10.7681 -0.027893 0.00450626 0.0141416
6 2 3.86269 12.1685 9.93366 -0.00852107 0.00202503 6.00124e-05
7 1 12.5871 8.27794 2.66482 0.000959279 0.0054691 -0.00503269
8 2 11.8265 8.04297 3.10452 -0.0162794 -0.00185829 0.00113242
9 2 8.4213 7.88404 8.35426 0.014862 -0.00210455 0.00661279
10 1 7.69168 8.36266 7.91744 -0.0012465 -0.00267927 0.000244914
11 2 7.00992 7.76633 7.61594 -0.0185788 0.0182592 -0.0104246
12 2 6.48479 9.39256 8.94529 -0.00659686 -0.030423 -0.019763
13 1 5.91494 9.12174 2.78558 -0.00247376 -0.00820215 0.00788544
14 2 5.98722 9.18627 11.6695 0.0112952 0.0379429 0.0389231
15 2 5.33429 8.33539 2.82044 0.00286461 0.00970563 0.00182968
16 1 8.82326 7.47868 11.3684 0.00266064 -0.00255051 0.00320851
17 2 9.22317 7.19387 2.37016 0.00774878 -0.0212288 -0.0200125
18 2 8.09722 6.82146 11.1369 0.00954218 -0.0174895 0.0179821
19 1 4.35241 6.21523 2.29791 0.00148471 0.000292979 -0.00693427
20 2 3.52247 6.89326 2.3572 0.0151445 0.00193703 -0.0121553
21 2 12.3501 8.78534 10.6578 0.0018043 0.0329771 -0.00591716
22 1 9.75537 10.1626 11.665 -0.00172407 -0.00542962 -0.00191977
23 2 9.78975 10.2032 2.79984 0.0235522 0.0205907 0.0243549
24 2 9.29702 9.32947 11.4702 0.00582877 0.0030638 -0.0342969
25 1 3.13312 8.48906 5.72516 0.00550711 0.00088581 0.0013258
26 2 3.33428 9.46681 5.89139 -0.00357638 0.00364461 -0.00443706
27 2 4.78433 5.39944 3.66169 0.0276652 0.023464 -0.0150446
28 1 10.1601 7.12151 3.82047 -0.00129023 0.00314283 -0.000569489
29 2 10.1457 6.14257 3.98267 0.00196262 0.0169005 -0.000420628
30 2 9.6456 7.51152 4.53771 -0.0125466 0.0158462 0.0160381
31 1 3.48546 11.0325 5.8353 0.00151609 0.0032911 0.00199447
32 2 12.5963 12.9137 5.87771 -0.000495543 0.0140998 -0.0323217
33 2 3.91328 11.2234 4.96999 -0.000420813 0.00583681 0.0179823
34 1 8.52689 5.09395 8.54879 0.0026883 0.00466441 0.00331784
35 2 8.75368 4.12671 8.73394 -0.0293066 0.00681965 0.00225754
36 2 7.87802 5.25798 9.2755 0.0025503 0.0273077 0.0206401
37 1 7.66923 11.5858 10.818 -0.00066261 0.005417 0.00450561
38 2 8.48124 11.5269 9.39342 0.00202744 0.00865369 0.00756424
39 2 8.40916 11.095 11.2391 -0.023109 0.00814802 0.0307462
40 1 12.3119 13.8719 5.88133 0.00020248 -0.00660423 -0.00200693
41 2 3.93605 4.85392 4.85124 -0.0150786 0.0129625 -0.00403934
42 2 11.5318 4.11817 5.30815 0.00392165 0.0163296 0.0243764
43 1 4.82787 5.09939 4.61655 -0.000580549 -0.00375905 0.00256171
44 2 3.23922 8.63896 3.45232 0.0131031 0.0168791 -0.0415636
45 2 6.63339 4.18128 3.97239 -0.0138198 0.0123078 0.0035832
46 1 8.82434 11.9118 8.53951 0.000663054 -0.00194933 0.0002575
47 2 7.86706 11.6963 7.26448 -0.00158045 -0.00856824 -0.0205022
48 2 9.78572 11.6424 8.33413 0.0384638 -0.00900863 0.0158813
49 1 10.3991 6.97894 9.21253 0.000828517 0.000538207 0.000745471
50 2 10.0301 6.0801 9.06758 0.0111491 -0.0177001 -0.0178825
51 2 9.80487 7.33778 9.96877 0.0304945 0.00965817 0.0328015
52 1 9.18688 10.0209 4.71642 -0.00275999 0.00080015 0.00678838
53 2 9.88058 9.65401 5.23393 0.00289265 0.00910299 -0.0136243
54 2 8.59195 10.412 5.3452 -0.0174812 0.00951034 -0.00589773
55 1 4.89797 11.6608 3.35681 0.00474966 0.00332282 -0.000740818
56 2 5.22596 10.7108 3.16555 0.0204064 -0.0148194 -0.0076164
57 2 4.41108 11.8539 2.58338 -0.00291271 0.0118305 -0.00250581
58 1 5.99483 9.91154 9.58216 0.00210215 -0.00209158 0.00801646
59 2 4.89493 12.7481 7.81296 0.000497896 0.0338346 0.0156332
60 2 7.04032 10.7927 10.4463 -0.0226488 0.0197387 -0.00799485
61 1 7.65925 4.59927 5.95743 -0.000796344 -0.00560459 -0.0121253
62 2 8.20385 4.94443 6.74386 0.0281337 -0.00663808 -0.00799586
63 2 6.77914 5.03866 6.11551 0.0129226 -0.00390689 0.0208898
64 1 5.06341 11.7554 7.78607 -0.00375815 0.00464909 0.0039121
65 2 4.17319 11.2982 6.56421 -0.0345411 0.00532015 0.0137255
66 2 3.35113 4.46977 7.3709 0.00128442 -0.0252384 -0.0167436
67 1 11.4486 11.0922 8.05735 -0.00349511 -0.0112088 0.00235864
68 2 12.2301 11.1163 7.49299 0.00544409 0.0299769 -0.00282286
69 2 11.737 10.5908 8.86468 -0.0155044 0.000841132 -0.0240263
70 1 9.9657 4.37199 4.08427 0.000423792 -0.0028183 3.24819e-05
71 2 9.99361 13.7883 3.18949 0.0155919 -0.00397836 0.000634313
72 2 9.02213 4.27701 4.31585 0.00375893 0.0212384 0.0269829
73 1 10.4757 7.61026 6.38419 -0.00404078 -0.00407664 -0.00114311
74 2 10.3929 7.37041 7.35542 0.00119664 0.0231484 -0.00584856
75 2 11.4405 7.82203 6.18555 -0.00718945 -0.0101032 -0.0180505
76 1 12.6989 5.39038 10.2759 -0.00177555 -7.40368e-05 -0.00126769
77 2 12.1008 5.99553 9.80436 0.00130049 0.0183888 0.0282728
78 2 4.02216 5.56945 11.4657 0.0154888 0.0169923 -0.02159
79 1 12.3918 8.90332 9.76033 0.00586749 0.00482038 0.000608938
80 2 11.5611 8.51011 9.42155 0.028607 0.0057527 -0.0204027
81 2 5.45133 10.5452 9.07707 -0.0136678 -0.00205806 -0.0107705