ITEM: TIMESTEP
0
ITEM: NUMBER OF ATOMS
96
ITEM: BOX BOUNDS pp pp pp
2.9236100000000000e+00 1.2773600000000000e+01
4.0306300000000004e+00 1.3880599999999999e+01
2.1372399999999998e+00 1.1987200000000000e+01
ITEM: ATOMS id type x y z vx vy vz
1 1 7.03257 13.3866 3.37605 -0.0034771 0.000806882 0.00345712
2 2 6.56052 12.5529 3.40235 0.00672397 -0.0168884 -0.012448
3 2 11.4645 12.9672 11.2462 0.00864287 0.0120429 -0.0190681
4 1 3.59185 11.9103 10.8136 0.0059878 0.00220979 0.00419165
5 2 3.68971 10.948 10.724 0.0261305 -0.0213678 -0.0191655
6 2 3.88942 12.1612 9.93031 0.0118929 -0.00298631 0.00013562
7 1 12.5897 8.26687 2.67885 0.00271431 -0.00343133 0.00663219
8 2 11.7907 8.01601 3.12108 -0.0396526 -0.0217116 0.0101169
9 2 8.37061 7.87567 8.32801 -0.019035 -0.00996623 -0.0107841
10 1 7.69475 8.37091 7.9174 0.000949948 0.00388532 6.11259e-05
11 2 7.06517 7.7076 7.64079 0.0233724 -0.026764 0.00833183
12 2 6.53255 9.44449 8.95879 0.0319321 0.0104018 -0.0108179
13 1 5.91922 9.13985 2.76306 0.00085196 0.0059924 -0.0105724
14 2 5.96522 9.10449 11.604 -0.00583447 -0.025504 -0.00758476
15 2 5.34298 8.33574 2.82492 0.0111624 0.0121397 0.00653733
16 1 8.81529 7.48521 11.3589 -0.00352316 0.00268026 -0.00406635
17 2 9.20664 7.24167 2.42549 -0.00867036 0.0171799 0.0188325
18 2 8.08634 6.86295 11.1072 0.000847711 0.0146945 -0.00405817
19 1 4.34644 6.21684 2.31418 -0.00316595 0.0013915 0.00607785
20 2 3.529 6.86616 2.39481 0.0179564 -0.0180269 0.0173822
21 2 12.3524 8.69871 10.7187 0.00540931 -0.0337759 0.0302998
22 1 9.75964 10.1759 11.6694 0.00154437 0.00483511 0.00126919
23 2 9.72908 10.1603 2.75352 -0.022064 -0.0084804 -0.00254085
24 2 9.28664 9.31541 11.5496 -0.00223809 -0.00757305 0.023706
25 1 3.11971 8.48504 5.72127 -0.00501452 -0.00222818 -0.00175085
26 2 3.33668 9.45612 5.90517 -0.00340549 -0.00144658 0.00596319
27 2 4.71563 5.35307 3.67495 -0.0263339 -0.0122702 -0.00812419
28 1 10.1633 7.11207 3.82001 0.00136748 -0.0047109 -0.0011696
29 2 10.142 6.10206 3.98419 -0.000898224 -0.0129692 -5.44439e-05
30 2 9.67635 7.48454 4.525 0.00943711 -0.00340604 0.00949121
31 1 3.48154 11.0275 5.82849 -0.00113735 -0.000662017 -0.00345529
32 2 12.5726 12.9159 5.94772 -0.01863 0.0171851 0.0238074
33 2 3.91508 11.206 4.92976 -0.00182145 -0.00890473 -0.009715
34 1 8.52107 5.07942 8.54148 -0.00171222 -0.00687376 -0.00282468
35 2 8.8198 4.14322 8.71133 0.0232109 0.0183116 -0.0150108
36 2 7.87113 5.19672 9.22062 -0.00712965 -0.021253 -0.0185679
37 1 7.66892 11.5692 10.8053 -0.000504358 -0.00781254 -0.00547686
38 2 8.47658 11.4943 9.39042 -0.00213917 -0.0172028 0.00441386
39 2 8.48405 11.0814 11.1836 0.0346238 -0.000400404 -0.0140164
40 1 12.3119 4.03692 5.88597 -2.31351e-05 0.00521967 0.00149542
41 2 3.95122 4.81143 4.88384 -0.00176916 -0.0209675 0.0231205
42 2 11.5358 4.06377 5.25908 0.0101535 -0.0259242 -0.0118363
43 1 4.83113 5.10792 4.61142 0.0019187 0.00297502 -0.0012952
44 2 3.20542 8.58855 3.52831 -0.0144296 -0.023771 0.0163616
45 2 6.65785 4.1435 3.97472 0.00186723 -0.0148331 0.00996596
46 1 8.82369 11.9191 8.53681 -0.000513373 0.00412658 -0.00163734
47 2 7.86814 11.7208 7.31351 -0.00237187 0.00983234 0.0169857
48 2 9.68975 11.6507 8.30415 -0.0269624 -0.00582628 -0.0109377
49 1 10.3958 6.97788 9.21146 -0.00178838 -0.000293357 -0.000185808
50 2 9.99992 6.1083 9.09329 -0.0115851 -0.000148458 2.12397e-05
51 2 9.74565 7.32207 9.88583 -0.0176794 0.00200353 -0.0299972
52 1 9.19426 10.019 4.69887 0.00337322 -0.000869032 -0.00681205
53 2 9.87182 9.6245 5.27442 -0.0064981 -0.0132825 0.0140258
54 2 8.63094 10.3924 5.36316 0.0121231 -0.00529042 0.00708291
55 1 4.8873 11.65 3.36112 -0.00410281 -0.0047996 0.0025726
56 2 5.18935 10.7448 3.20018 -0.00662536 0.00567692 0.0183126
57 2 4.38779 11.8576 2.55128 -0.0190052 0.0132632 -0.0245041
58 1 5.98872 9.9163 9.5662 -0.00280165 0.00171751 -0.00458636
59 2 4.88891 12.6473 7.77967 -0.00655005 -0.0345686 -0.0104627
60 2 7.10215 10.7849 10.4745 0.0222558 0.0100943 0.0128903
61 1 7.65994 4.61516 5.98853 -0.000487052 0.00678591 0.012254
62 2 8.12645 4.9486 6.75945 -0.0293247 -0.000135799 0.0106574
63 2 6.76526 5.03687 6.05451 0.000748655 -0.0046672 -0.0271656
64 1 5.07375 11.7454 7.77448 0.00452999 -0.00410086 -0.00538006
65 2 4.26925 11.286 6.54614 0.0365594 -0.00603513 -0.00441849
66 2 3.37875 4.53675 7.43424 0.0181051 0.0271742 0.0281949
67 1 11.4576 11.1191 8.05444 0.00379595 0.0101449 0.000380797
68 2 12.2164 11.0401 7.49515 -0.00382882 -0.0301456 -0.00401087
69 2 11.7668 10.6027 8.8881 0.0055971 0.0127411 -0.00826995
70 1 9.96374 4.37804 4.08274 -0.00123782 0.00201397 -0.00113541
71 2 9.96718 13.8098 3.19901 -0.00294565 0.0122461 0.00501774
72 2 9.0187 4.22732 4.26032 6.41166e-07 -0.0171409 -0.0147371
73 1 10.4859 7.62029 6.38912 0.00403289 0.0039137 0.00279105
74 2 10.4027 7.32551 7.33406 0.00787737 -0.0129747 -0.0210963
75 2 11.4398 7.84375 6.24063 -0.00528397 0.00771228 0.0243967
76 1 12.702 5.38919 10.2784 0.00101695 -0.000439214 0.000534954
77 2 12.0881 5.94852 9.74476 -0.00739583 -0.0192896 -0.0187846
78 2 4.0031 5.53009 11.5328 -0.000164769 -0.0136386 0.0316206
79 1 12.3758 8.89222 9.75534 -0.00726315 -0.00431036 -0.00254487
80 2 11.5082 8.49597 9.46997 -0.0106527 -0.00386841 0.0178207
81 2 5.47447 10.5757 9.08046 0.00466982 0.0222009 -0.00872401
82 1 7.06867 5.37471 10.9515 0.00189929 0.000784075 -0.00261459
83 2 7.13656 4.64222 11.5899 -0.0187145 -5.8368e-06 -0.0185049
84 2 6.24795 5.66996 11.3841 -0.0150998 -0.0315776 -0.0065588
85 1 10.5344 13.2786 11.24 -0.000740653 0.000332595 0.00698328
86 2 10.0403 12.682 10.699 -0.0154678 -0.0065512 -1.21996e-05
87 2 12.1656 4.70987 10.6287 0.0111265 0.0256612 -0.011262
88 1 7.23254 11.8548 6.42468 0.00162272 -0.00576683 -1.84406e-05
89 2 6.08534 11.7397 6.97238 -0.0189968 0.00502382 0.00716557
90 2 7.33615 12.8978 6.24976 0.00906906 -0.00224479 0.00376321
91 1 5.37346 6.88624 6.4065 0.00123919 -0.000391354 0.00332018
92 2 3.9477 8.04095 5.98922 0.0111512 0.00696366 -0.0100739
93 2 5.14322 6.18444 7.01609 0.00618041 0.00156251 -0.00559224
94 1 4.13669 4.58888 8.04788 0.00193236 0.00470605 0.00297006
95 2 3.75476 4.76605 8.92244 0.0100834 0.00851225 0.00849981
96 2 5.56859 6.41439 5.54191 -9.43117e-05 0.00812521 -0.00752974
ITEM: TIMESTEP
1
ITEM: NUMBER OF ATOMS
96
ITEM: BOX BOUNDS pp pp pp
2.9236100000000000e+00 1.2773600000000000e+01
4.0306300000000004e+00 1.3880599999999999e+01
2.1372399999999998e+00 1.1987200000000000e+01
ITEM: ATOMS id type x y z vx vy vz
1 1 7.03095 13.387 3.3777 -0.00301896 0.000773198 0.00313045
2 2 6.56303 12.5443 3.39644 0.00347344 -0.0169804 -0.0111239
3 2 11.4676 12.9727 11.2363 0.00368615 0.010177 -0.0206581
4 1 3.59483 11.9114 10.8156 0.00596984 0.00198198 0.00395764
5 2 3.70251 10.9378 10.7145 0.0248874 -0.0182632 -0.0187154
6 2 3.89541 12.1598 9.93076 0.0120004 -0.0025978 0.00183533
7 1 12.5912 8.26524 2.68231 0.00300443 -0.00313651 0.0072624
8 2 11.7694 8.0044 3.1259 -0.04401 -0.0241393 0.00829104
9 2 8.36182 7.86995 8.32292 -0.0154914 -0.0128513 -0.00923185
10 1 7.69517 8.3729 7.91743 0.000712465 0.00406882 3.12679e-05
11 2 7.07679 7.69412 7.64469 0.0228705 -0.0267828 0.00714591
12 2 6.54956 9.44885 8.95192 0.0353931 0.0076614 -0.0159944
13 1 5.91956 9.14271 2.7576 0.000526058 0.00546578 -0.0112546
14 2 5.96264 9.09261 11.6023 -0.00447269 -0.0218918 0.000519772
15 2 5.3493 8.343 2.82873 0.0138236 0.0165326 0.00872778
16 1 8.81351 7.48656 11.3569 -0.00355127 0.00273083 -0.00400491
17 2 9.20186 7.25009 2.43412 -0.010611 0.0165225 0.0152636
18 2 8.08721 6.86998 11.106 0.00236853 0.0132168 -0.000580351
19 1 4.34481 6.21759 2.31718 -0.00329274 0.00157204 0.00592401
20 2 3.53907 6.85673 2.4037 0.0214615 -0.0191305 0.0181602
21 2 12.3557 8.68218 10.7332 0.00775614 -0.032 0.026382
22 1 9.76038 10.1782 11.67 0.00140995 0.00450912 0.00098939
23 2 9.71849 10.1574 2.75455 -0.020135 -0.00289577 0.00684983
24 2 9.28575 9.3115 11.5602 -0.00124038 -0.00791429 0.0182638
25 1 3.11726 8.48387 5.72038 -0.00474988 -0.00244399 -0.00180355
26 2 3.33441 9.45593 5.90814 -0.00577379 0.000765022 0.00586424
27 2 4.70262 5.34758 3.66951 -0.0257212 -0.00984272 -0.0131146
28 1 10.164 7.1096 3.81932 0.00139615 -0.00515066 -0.00159071
29 2 10.1416 6.09609 3.98404 -0.000680301 -0.0107397 -0.000585456
30 2 9.6807 7.48366 4.53133 0.00817374 -0.000280673 0.0155882
31 1 3.48106 11.0273 5.82669 -0.000752495 -0.000124594 -0.00370779
32 2 12.5625 12.926 5.95925 -0.0212221 0.0224728 0.022446
33 2 3.91371 11.2013 4.92587 -0.00375319 -0.00987336 -0.00568896
34 1 8.52029 5.0759 8.54005 -0.0013859 -0.00714971 -0.00291391
35 2 8.8311 4.15319 8.70335 0.0221131 0.0208383 -0.0166639
36 2 7.86679 5.18642 9.21206 -0.0104699 -0.0200193 -0.0153592
37 1 7.66868 11.5652 10.8025 -0.000409703 -0.00814402 -0.00551677
38 2 8.47548 11.4854 9.39301 -0.00217451 -0.0183546 0.00554358
39 2 8.50157 11.0819 11.1773 0.0350809 0.0023265 -0.0110889
40 1 12.3119 4.03945 5.88667 -0.000106968 0.00492086 0.00128048
41 2 3.94989 4.80065 4.89637 -0.00280823 -0.0218602 0.0266991
42 2 11.5419 4.05056 5.2541 0.0138943 -0.0266354 -0.00812624
43 1 4.83213 5.10936 4.61086 0.00203057 0.00276049 -0.000945885
44 2 3.19806 8.5763 3.53496 -0.0149534 -0.0251001 0.0103824
45 2 6.65773 4.13632 3.98091 -0.00247554 -0.0138513 0.0149194
46 1 8.82336 11.9213 8.53597 -0.000853576 0.00466334 -0.00169425
47 2 7.86651 11.7256 7.32155 -0.00431881 0.00929681 0.0149011
48 2 9.67826 11.6466 8.29854 -0.0184847 -0.0107311 -0.0117011
49 1 10.3949 6.97774 9.21138 -0.0019739 -0.000285235 -0.000132667
50 2 9.99432 6.10686 9.09214 -0.0106221 -0.00539865 -0.00460601
51 2 9.73733 7.32424 9.8714 -0.0156842 0.00681322 -0.0275761
52 1 9.196 10.0185 4.69553 0.00361532 -0.000965492 -0.00652271
53 2 9.86808 9.61782 5.28081 -0.00858001 -0.0133489 0.0111344
54 2 8.63655 10.3901 5.36653 0.0102793 -0.00401967 0.0061787
55 1 4.88523 11.6476 3.36246 -0.004216 -0.00473831 0.00274841
56 2 5.18694 10.7464 3.20957 -0.00312151 0.000613445 0.0189481
57 2 4.37776 11.8651 2.53845 -0.0203677 0.0161378 -0.0258489
58 1 5.98729 9.91714 9.56407 -0.00291335 0.00162707 -0.00400475
59 2 4.88497 12.6318 7.77478 -0.0095438 -0.0263384 -0.00904699
60 2 7.11256 10.7908 10.4809 0.0187981 0.0124853 0.0125299
61 1 7.65961 4.61856 5.99459 -0.000848187 0.00679146 0.0119451
62 2 8.11232 4.94864 6.76578 -0.0268942 0.000614252 0.0151819
63 2 6.76607 5.03425 6.04073 0.00213634 -0.00558971 -0.0278624
64 1 5.07606 11.7433 7.77172 0.00470729 -0.00448704 -0.00564987
65 2 4.28675 11.2827 6.5438 0.0326508 -0.00734745 -0.0055299
66 2 3.3879 4.55028 7.44802 0.0176442 0.0268658 0.0261559
67 1 11.4595 11.1241 8.0548 0.00390944 0.00985595 0.00102726
68 2 12.2147 11.0251 7.49244 -0.00284065 -0.0296454 -0.0069818
69 2 11.7688 10.6099 8.88219 0.00241021 0.0160482 -0.0149218
70 1 9.96307 4.37901 4.08213 -0.00144604 0.00187351 -0.0012801
71 2 9.96665 13.8162 3.20129 0.000972898 0.0130449 0.003633
72 2 9.01874 4.21912 4.25389 2.71947e-05 -0.0155743 -0.0108092
73 1 10.4879 7.62224 6.39058 0.00391541 0.0038825 0.00302379
74 2 10.4069 7.31942 7.32266 0.00853908 -0.0116767 -0.023648
75 2 11.437 7.84759 6.25287 -0.00536798 0.00779578 0.0242924
76 1 12.7025 5.38903 10.2786 0.00107074 -0.00015359 0.00021851
77 2 12.0843 5.93884 9.73591 -0.00752743 -0.0193661 -0.0165712
78 2 4.00365 5.52346 11.5489 0.00208365 -0.013043 0.0325929
79 1 12.3721 8.89005 9.7541 -0.00766101 -0.00437338 -0.00232036
80 2 11.5041 8.49431 9.47866 -0.00594732 -0.00280272 0.0167886
81 2 5.47653 10.5875 9.0752 0.00408677 0.0244763 -0.0118905
82 1 7.06954 5.37511 10.9503 0.00156819 0.000820672 -0.00229346
83 2 7.12933 4.64058 11.5803 -0.00938953 -0.00767356 -0.0193256
84 2 6.23941 5.65614 11.3797 -0.0196145 -0.0229005 -0.0113421
85 1 10.5341 13.2788 11.2435 -0.000453256 0.000505417 0.0070452
86 2 10.0328 12.6782 10.6989 -0.0140028 -0.00826419 8.15709e-05
87 2 12.1699 4.72174 10.6234 0.00539313 0.0209202 -0.00930192
88 1 7.2335 11.8519 6.4246 0.00221902 -0.00583394 -0.000263279
89 2 6.07387 11.7423 6.97799 -0.0262936 0.00544985 0.0149776
90 2 7.34052 12.8969 6.25159 0.00830731 -0.00169627 0.00349606
91 1 5.37412 6.88606 6.40813 0.00142007 -0.000328795 0.00319364
92 2 3.95334 8.04329 5.98425 0.0110857 0.00244989 -0.00989649
93 2 5.14583 6.1849 7.01353 0.00421349 4.36293e-05 -0.00450477
94 1 4.1377 4.59121 8.04931 0.00214224 0.00462284 0.00280529
95 2 3.75981 4.77043 8.92723 0.0102099 0.00900686 0.0106874
96 2 5.5679 6.41871 5.53868 -0.00271768 0.00913091 -0.00526714
ITEM: TIMESTEP
2
ITEM: NUMBER OF ATOMS
96
ITEM: BOX BOUNDS pp pp pp
2.9236100000000000e+00 1.2773600000000000e+01
4.0306300000000004e+00 1.3880599999999999e+01
2.1372399999999998e+00 1.1987200000000000e+01
ITEM: ATOMS id type x y z vx vy vz
1 1 7.02955 13.3874 3.37918 -0.00258717 0.00067819 0.00279604
2 2 6.56399 12.5359 3.39123 0.00058023 -0.0160903 -0.00971632
3 2 11.4682 12.9774 11.2255 -0.0014865 0.00834599 -0.0221536
4 1 3.59782 11.9123 10.8176 0.00598634 0.00162841 0.00369282
5 2 3.7146 10.9297 10.7053 0.0233143 -0.01344 -0.0177467
6 2 3.90142 12.1586 9.93215 0.0120251 -0.00193496 0.00381469
7 1 12.5927 8.26373 2.68611 0.00305661 -0.00291928 0.00796455
8 2 11.7467 7.99187 3.12937 -0.0450657 -0.0254399 0.00482139
9 2 8.35512 7.86282 8.31878 -0.0108742 -0.0155239 -0.00709286
10 1 7.69546 8.37498 7.91743 0.00043095 0.00420233 -1.2177e-05
11 2 7.08804 7.68082 7.64794 0.0219333 -0.0260365 0.00572097
12 2 6.56794 9.45215 8.9428 0.0372483 0.00620485 -0.019647
13 1 5.91975 9.14532 2.75181 0.000245635 0.00499198 -0.0118803
14 2 5.96075 9.0826 11.6045 -0.00306084 -0.0181216 0.007703
15 2 5.3568 8.35227 2.83365 0.0157305 0.0199436 0.0109791
16 1 8.81174 7.48794 11.3549 -0.0035235 0.00280899 -0.00387904
17 2 9.19603 7.25819 2.44075 -0.0128033 0.0158943 0.0109866
18 2 8.08871 6.87617 11.1066 0.00333579 0.0112678 0.00280212
19 1 4.34315 6.21841 2.3201 -0.00327496 0.00168644 0.00578993
20 2 3.55046 6.84703 2.41297 0.0231076 -0.019011 0.0189439
21 2 12.3602 8.66671 10.7451 0.0102054 -0.0295882 0.0200689
22 1 9.76105 10.1804 11.6704 0.00124108 0.00412549 0.000751596
23 2 9.70895 10.1574 2.76037 -0.0179686 0.00325141 0.0159544
24 2 9.2854 9.3075 11.5679 3.72883e-05 -0.00776799 0.0122753
25 1 3.11496 8.4826 5.71947 -0.00441988 -0.00265037 -0.00184074
26 2 3.33091 9.45689 5.91103 -0.00828438 0.0029965 0.00564581
27 2 4.68991 5.34323 3.66184 -0.0251234 -0.00779825 -0.016845
28 1 10.1647 7.10692 3.81842 0.00139075 -0.00557446 -0.00197463
29 2 10.1413 6.09132 3.9836 -0.000495024 -0.00825125 -0.00116203
30 2 9.68452 7.48426 4.54059 0.00747 0.00240646 0.0209825
31 1 3.48079 11.0274 5.82478 -0.000293266 0.000402387 -0.0039177
32 2 12.5514 12.9384 5.97017 -0.0229965 0.0262821 0.021422
33 2 3.91133 11.1961 4.92407 -0.00580598 -0.0108003 -0.00154999
34 1 8.51968 5.07227 8.53857 -0.00105607 -0.00730924 -0.00304407
35 2 8.84191 4.16406 8.69467 0.0212944 0.0217867 -0.0178324
36 2 7.86066 5.1767 9.20526 -0.0141299 -0.0189871 -0.0116835
37 1 7.66851 11.5611 10.7998 -0.000186207 -0.00837571 -0.00549998
38 2 8.47441 11.4759 9.39596 -0.00200535 -0.0190261 0.00578043
39 2 8.51913 11.0837 11.1725 0.0347459 0.00513569 -0.00837515
40 1 12.3118 4.04184 5.88725 -0.00020573 0.00468094 0.0010534
41 2 3.94841 4.78957 4.91054 -0.00232758 -0.0221246 0.0295833
42 2 11.5497 4.03713 5.25095 0.0171578 -0.0267607 -0.00465769
43 1 4.83316 5.11068 4.61047 0.00204999 0.00252952 -0.00061387
44 2 3.19047 8.56345 3.53869 -0.0152609 -0.0261415 0.00488854
45 2 6.65537 4.12965 3.98964 -0.00693124 -0.0129492 0.0198891
46 1 8.82284 11.9238 8.53512 -0.00123578 0.00518992 -0.00167277
47 2 7.86382 11.7301 7.32841 -0.0065977 0.00853081 0.0122852
48 2 9.67127 11.64 8.29245 -0.00946184 -0.0158529 -0.0127291
49 1 10.3938 6.97759 9.21133 -0.00217441 -0.000328505 -9.98753e-05
50 2 9.9893 6.1029 9.08868 -0.00926887 -0.0099634 -0.00905156
51 2 9.72997 7.32888 9.85825 -0.0137945 0.0117455 -0.0249727
52 1 9.19788 10.018 4.69235 0.00386804 -0.00107403 -0.006156
53 2 9.86324 9.61115 5.28555 -0.010812 -0.0132789 0.00757537
54 2 8.64122 10.3884 5.36934 0.0083669 -0.0026998 0.00481277
55 1 4.88308 11.6453 3.36387 -0.00440785 -0.00459116 0.00281918
56 2 5.18623 10.7454 3.21913 9.29865e-05 -0.00446125 0.0189616
57 2 4.36742 11.8737 2.52543 -0.0201768 0.0177248 -0.0252355
58 1 5.98581 9.91793 9.5622 -0.00298349 0.00152732 -0.00357613
59 2 4.87937 12.621 7.77062 -0.0131403 -0.0160435 -0.00749136
60 2 7.12095 10.7974 10.487 0.0141705 0.0130681 0.0116984
61 1 7.65909 4.62195 6.00048 -0.00119834 0.00672344 0.0115529
62 2 8.09956 4.94921 6.77463 -0.024051 0.00187805 0.0205711
63 2 6.7674 5.03128 6.02665 0.00281626 -0.00609389 -0.0283542
64 1 5.07846 11.7409 7.76883 0.00489093 -0.00497582 -0.00588709
65 2 4.3019 11.2787 6.54061 0.0272384 -0.00908368 -0.00778803
66 2 3.39639 4.56362 7.4604 0.0155308 0.0264346 0.022659
67 1 11.4615 11.129 8.05547 0.00403118 0.00958723 0.00161099
68 2 12.2136 11.0105 7.48817 -0.00204998 -0.0289615 -0.0101058
69 2 11.7692 10.6187 8.87318 -0.000707382 0.0188901 -0.0204771
70 1 9.96229 4.37991 4.08146 -0.00165902 0.00174947 -0.00138379
71 2 9.96815 13.8228 3.20264 0.00511859 0.0135135 0.00137018
72 2 9.01873 4.21175 4.24951 -0.000163681 -0.0138712 -0.00662417
73 1 10.4898 7.62417 6.39214 0.00375298 0.00386651 0.00317381
74 2 10.4112 7.31383 7.31041 0.00862751 -0.010988 -0.0244238
75 2 11.4344 7.85155 6.26492 -0.00435023 0.0082045 0.0236244
76 1 12.7031 5.38904 10.2786 0.00116725 0.000222906 -0.000141094
77 2 12.0806 5.92915 9.72819 -0.00727364 -0.0193004 -0.0143259
78 2 4.00518 5.51705 11.5654 0.00374115 -0.0128389 0.0328285
79 1 12.3681 8.88785 9.75302 -0.00803822 -0.0044744 -0.00191171
80 2 11.5023 8.49317 9.48676 -0.00161275 -0.00185042 0.0154475
81 2 5.47856 10.6002 9.06857 0.00457239 0.0252655 -0.0141326
82 1 7.07024 5.37553 10.9492 0.00119256 0.000874457 -0.00198433
83 2 7.12717 4.63455 11.5706 0.000460082 -0.0160179 -0.0197374
84 2 6.22834 5.64706 11.3728 -0.0239083 -0.0138848 -0.0164011
85 1 10.5339 13.2791 11.247 -0.000200712 0.000614197 0.00704612
86 2 10.0263 12.6737 10.6991 -0.0117773 -0.00904193 0.000950542
87 2 12.171 4.73079 10.6194 -0.00117846 0.014648 -0.00646434
88 1 7.23476 11.849 6.42442 0.00282521 -0.00582401 -0.000469032
89 2 6.05905 11.7451 6.98736 -0.0323906 0.00571991 0.0221237
90 2 7.34446 12.8961 6.25326 0.00735611 -0.00197738 0.00314582
91 1 5.37488 6.88591 6.40969 0.00160473 -0.000241121 0.00303412
92 2 3.95879 8.0434 5.97932 0.0103445 -0.0018533 -0.00990699
93 2 5.14743 6.18448 7.01159 0.00214688 -0.00184565 -0.00315466
94 1 4.13883 4.5935 8.05069 0.00244758 0.00455243 0.00274129
95 2 3.76497 4.77506 8.93313 0.0105205 0.00946941 0.0128469
96 2 5.56587 6.42352 5.53664 -0.00540104 0.0100467 -0.00288871
ITEM: TIMESTEP
3
ITEM: NUMBER OF ATOMS
96
ITEM: BOX BOUNDS pp pp pp
2.9236100000000000e+00 1.2773600000000000e+01
4.0306300000000004e+00 1.3880599999999999e+01
2.1372399999999998e+00 1.1987200000000000e+01
ITEM: ATOMS id type x y z vx vy vz
1 1 7.02836 13.3877 3.3805 -0.00220224 0.000543254 0.00247294
2 2 6.56361 12.5282 3.38673 -0.00190954 -0.0141883 -0.00826366
3 2 11.4661 12.9811 11.2141 -0.00653225 0.00650453 -0.0235043
4 1 3.60082 11.913 10.8193 0.00603049 0.0011781 0.00341276
5 2 3.72582 10.9244 10.6967 0.0214569 -0.00737898 -0.0163104
6 2 3.90743 12.1578 9.93457 0.0120338 -0.00097642 0.00589634
7 1 12.5942 8.26232 2.69028 0.00287642 -0.00278409 0.00869946
8 2 11.7243 7.97896 3.13072 -0.0430811 -0.0256809 -3.54011e-05
9 2 8.35095 7.85443 8.31583 -0.00554884 -0.0177258 -0.00457173
10 1 7.6956 8.37711 7.91741 0.000125913 0.00426946 -5.6362e-05
11 2 7.09872 7.66808 7.65041 0.0205766 -0.0244986 0.00407254
12 2 6.58681 9.45506 8.93227 0.037292 0.00609026 -0.0215532
13 1 5.91981 9.1477 2.74572 2.82604e-05 0.00460506 -0.0124053
14 2 5.95958 9.07449 11.61 -0.00157037 -0.0142788 0.0131979
15 2 5.36503 8.36295 2.83971 0.016576 0.0219337 0.0133703
16 1 8.80999 7.48937 11.353 -0.00344221 0.0029227 -0.00370441
17 2 9.18906 7.26598 2.44511 -0.015075 0.0152703 0.00628231
18 2 8.09054 6.88125 11.1088 0.00364439 0.00881148 0.00596661
19 1 4.34153 6.21928 2.32297 -0.00309739 0.00173516 0.00567167
20 2 3.56218 6.83771 2.42264 0.0227493 -0.0175972 0.0197759
21 2 12.3659 8.65259 10.7533 0.0126704 -0.0266532 0.011989
22 1 9.76162 10.1824 11.6707 0.00103603 0.00368922 0.000605735
23 2 9.70052 10.1606 2.77051 -0.015731 0.00957932 0.0236041
24 2 9.28578 9.30373 11.5725 0.00173208 -0.00687058 0.00618571
25 1 3.11284 8.48122 5.71854 -0.00402888 -0.0028487 -0.00186227
26 2 3.32612 9.45892 5.91379 -0.0108327 0.00492816 0.00531883
27 2 4.67749 5.33978 3.65267 -0.0245432 -0.00625887 -0.0189066
28 1 10.1654 7.10403 3.81734 0.00133873 -0.00595944 -0.00229719
29 2 10.1411 6.08784 3.98288 -0.000347728 -0.00562808 -0.00174036
30 2 9.68817 7.48606 4.55231 0.00757877 0.00443127 0.0252959
31 1 3.48076 11.0277 5.82278 0.000216714 0.000913151 -0.00407278
32 2 12.5395 12.9523 5.98067 -0.02386 0.0282492 0.0208434
33 2 3.90791 11.1905 4.92432 -0.00778452 -0.0116146 0.00228744
34 1 8.51924 5.06859 8.53701 -0.000746356 -0.00733855 -0.0031967
35 2 8.8524 4.17498 8.68552 0.0208156 0.0210303 -0.0184867
36 2 7.85266 5.16743 9.20038 -0.0177639 -0.0182416 -0.00786052
37 1 7.66849 11.5568 10.797 0.000159005 -0.0084994 -0.00543272
38 2 8.47348 11.4663 9.39879 -0.00158118 -0.0191224 0.00501618
39 2 8.53632 11.087 11.169 0.0335847 0.00786862 -0.00589097
40 1 12.3117 4.04413 5.88772 -0.000306244 0.00452441 0.000827256
41 2 3.94757 4.77853 4.92595 -0.000289706 -0.0216806 0.0315946
42 2 11.559 13.8738 5.24944 0.0196455 -0.0262844 -0.00171159
43 1 4.83418 5.11189 4.61025 0.00197538 0.00228235 -0.000311457
44 2 3.1828 8.55016 3.53985 -0.0151825 -0.0267803 0.000250437
45 2 6.6508 4.12337 4.0008 -0.0112326 -0.0124143 0.0244797
46 1 8.82212 11.9265 8.53429 -0.00160893 0.00568099 -0.00158419
47 2 7.85992 11.7341 7.33383 -0.00914026 0.00754521 0.00915688
48 2 9.6688 11.6308 8.28581 -0.000785927 -0.020888 -0.0137664
49 1 10.3927 6.97741 9.21128 -0.00239819 -0.000433625 -8.59549e-05
50 2 9.98505 6.0969 9.08308 -0.00756022 -0.0133622 -0.0130942
51 2 9.72353 7.33598 9.84643 -0.0119233 0.0164458 -0.0223962
52 1 9.19987 10.0175 4.68937 0.00411639 -0.00118535 -0.00573359
53 2 9.85727 9.60454 5.28838 -0.012994 -0.0131761 0.00359342
54 2 8.64492 10.3874 5.37135 0.00644471 -0.00135688 0.00300823
55 1 4.88082 11.643 3.36528 -0.00466271 -0.00438613 0.00278613
56 2 5.18703 10.7419 3.22853 0.00281159 -0.00903644 0.0183686
57 2 4.35758 11.8828 2.51321 -0.0184479 0.0179502 -0.0227296
58 1 5.9843 9.91866 9.56049 -0.00299909 0.00142024 -0.00332148
59 2 4.87183 12.6157 7.76728 -0.0171726 -0.00459323 -0.00579739
60 2 7.12673 10.8038 10.4926 0.00854125 0.0118368 0.010468
61 1 7.65841 4.62529 6.00614 -0.00151775 0.00659342 0.0111072
62 2 8.08827 4.95052 6.78635 -0.0211354 0.00346839 0.0263872
63 2 6.76889 5.02816 6.01237 0.00281636 -0.00617466 -0.0286405
64 1 5.08095 11.7383 7.76583 0.00506866 -0.00550276 -0.00608321
65 2 4.31399 11.2736 6.53601 0.0204355 -0.0112274 -0.0111199
66 2 3.40343 4.57671 7.47068 0.0119751 0.025947 0.0179616
67 1 11.4636 11.1337 8.05641 0.00415635 0.00935692 0.00209128
68 2 12.2127 10.9962 7.48233 -0.00165279 -0.0280828 -0.0131552
69 2 11.7681 10.6288 8.86172 -0.00353584 0.0209977 -0.0245004
70 1 9.96141 4.38076 4.08075 -0.00187554 0.00163936 -0.00145143
71 2 9.97177 13.8297 3.20266 0.00936839 0.0137185 -0.0015801
72 2 9.01857 4.20525 4.24727 -0.000485252 -0.0120795 -0.00232473
73 1 10.4916 7.6261 6.39376 0.00355242 0.00387128 0.0032319
74 2 10.4155 7.30843 7.29824 0.00813135 -0.0109937 -0.0233298
75 2 11.4326 7.85579 6.2765 -0.00230386 0.00894499 0.0224225
76 1 12.7037 5.38925 10.2785 0.00127814 0.000648247 -0.000525425
77 2 12.077 5.91954 9.72159 -0.00666162 -0.0190545 -0.0120804
78 2 4.00739 5.51062 11.5818 0.00473258 -0.0130788 0.0322787
79 1 12.364 8.88558 9.75219 -0.00836732 -0.00459782 -0.00135518
80 2 11.5025 8.49246 9.4941 0.00201379 -0.00116187 0.013749
81 2 5.48111 10.6128 9.06107 0.00617046 0.0244391 -0.0152992
82 1 7.07073 5.37598 10.9483 0.000744043 0.000908252 -0.00163411
83 2 7.12979 4.62456 11.5606 0.00905013 -0.0224631 -0.0206071
84 2 6.2155 5.64225 11.3633 -0.0257918 -0.0066032 -0.0215883
85 1 10.5339 13.2794 11.2506 4.15433e-06 0.000666597 0.0069899
86 2 10.0211 12.6691 10.6999 -0.0089365 -0.00894606 0.00251388
87 2 12.1687 4.73639 10.617 -0.00809531 0.00746339 -0.00305
88 1 7.23632 11.8461 6.42414 0.00343861 -0.00573033 -0.000630569
89 2 6.04148 11.7481 7.00011 -0.037191 0.00582306 0.028517
90 2 7.34787 12.8949 6.25473 0.0062435 -0.0031584 0.0027068
91 1 5.37573 6.88582 6.41117 0.00178531 -0.000131655 0.00286382
92 2 3.96368 8.04144 5.97434 0.00886898 -0.00572742 -0.0100953
93 2 5.14798 6.18305 7.01037 3.13707e-05 -0.00394112 -0.00166137
94 1 4.14014 4.59576 8.05205 0.00283385 0.00449081 0.00277393
95 2 3.77033 4.7799 8.94008 0.0110151 0.00986764 0.014795
96 2 5.5625 6.42876 5.53579 -0.00807118 0.0107754 -0.000620273
ITEM: TIMESTEP
4
ITEM: NUMBER OF ATOMS
96
ITEM: BOX BOUNDS pp pp pp
2.9236100000000000e+00 1.2773600000000000e+01
4.0306300000000004e+00 1.3880599999999999e+01
2.1372399999999998e+00 1.1987200000000000e+01
ITEM: ATOMS id type x y z vx vy vz
1 1 7.02735 13.3879 3.38165 -0.00188046 0.00039159 0.0021796
2 2 6.56208 12.5217 3.38296 -0.00398297 -0.0113366 -0.00680621
3 2 11.4617 12.9839 11.202 -0.0111072 0.0046092 -0.0246735
4 1 3.60385 11.9135 10.821 0.00609324 0.000663772 0.00313216
5 2 3.73605 10.9224 10.689 0.0193833 -0.000596643 -0.0144881
6 2 3.91345 12.1576 9.93804 0.0120899 0.000278766 0.00790779
7 1 12.5956 8.26095 2.69481 0.0024845 -0.0027302 0.00942305
8 2 11.7036 7.96619 3.12934 -0.0384893 -0.0249819 -0.00590899
9 2 8.34957 7.84509 8.31421 2.85944e-05 -0.0191778 -0.0019241
10 1 7.69559 8.37925 7.91737 -0.000177828 0.00425349 -8.73971e-05
11 2 7.10862 7.65632 7.65201 0.0188496 -0.0221717 0.00223825
12 2 6.60524 9.45824 8.92124 0.0355019 0.00721166 -0.0216711
13 1 5.91977 9.14992 2.7394 -0.000113453 0.00433262 -0.0127901
14 2 5.95918 9.06832 11.6177 0.000104383 -0.0103712 0.0161525
15 2 5.37338 8.37421 2.84702 0.0160579 0.0220842 0.0161401
16 1 8.8083 7.49086 11.3512 -0.0033141 0.00307662 -0.0034993
17 2 9.18095 7.27346 2.44704 -0.0172576 0.0146304 0.00145146
18 2 8.09235 6.88498 11.1126 0.00325043 0.0058583 0.00881418
19 1 4.34005 6.22015 2.32578 -0.00276008 0.00172426 0.00555543
20 2 3.57321 6.82943 2.43275 0.0203987 -0.0149378 0.020683
21 2 12.3728 8.64006 10.7571 0.0150736 -0.0233444 0.00283195
22 1 9.76209 10.1841 11.671 0.000796576 0.00321145 0.000589313
23 2 9.69321 10.167 2.78397 -0.013516 0.0157924 0.0289717
24 2 9.28713 9.30063 11.574 0.00386969 -0.00514834 0.00030377
25 1 3.11093 8.47975 5.7176 -0.00358622 -0.00303952 -0.00186964
26 2 3.32007 9.46181 5.91635 -0.0133142 0.00626371 0.00489749
27 2 4.66537 5.33697 3.64293 -0.0239674 -0.00528685 -0.0190747
28 1 10.166 7.10096 3.81612 0.00123311 -0.00628709 -0.00254035
29 2 10.141 6.08569 3.98186 -0.000237709 -0.00300143 -0.00228173
30 2 9.6921 7.48869 4.56588 0.00865429 0.00564339 0.0282586
31 1 3.481 11.0283 5.82071 0.000749834 0.00140281 -0.00416317
32 2 12.5275 12.9666 5.99101 -0.023787 0.0281444 0.0207981
33 2 3.90354 11.1845 4.92636 -0.00950407 -0.0122549 0.00540321
34 1 8.51894 5.06493 8.53537 -0.000479168 -0.00723479 -0.00335145
35 2 8.86273 4.18509 8.67618 0.0206872 0.0185923 -0.0186305
36 2 7.8429 5.15846 9.1974 -0.0210081 -0.0178504 -0.00421596
37 1 7.66867 11.5526 10.7944 0.000611175 -0.00851717 -0.00532517
38 2 8.47282 11.4568 9.40098 -0.000914668 -0.0185931 0.00324115
39 2 8.55272 11.0916 11.1666 0.0315716 0.0103814 -0.00365692
40 1 12.3115 4.04637 5.88808 -0.000395807 0.0044696 0.000614559
41 2 3.94812 4.76789 4.94213 0.00319329 -0.0205123 0.0326327
42 2 11.5693 13.8608 5.24924 0.0211302 -0.0252373 0.000474528
43 1 4.83514 5.11296 4.61016 0.00181539 0.00201634 -3.82775e-05
44 2 3.17528 8.53667 3.53894 -0.0145999 -0.0269395 -0.00318601
45 2 6.64414 4.11723 4.01412 -0.0151288 -0.0124782 0.0283215
46 1 8.82123 11.9294 8.53353 -0.00192393 0.00611105 -0.00144426
47 2 7.85468 11.7376 7.33757 -0.0118517 0.00634558 0.00558126
48 2 9.67048 11.6191 8.27868 0.00670632 -0.0255078 -0.0145544
49 1 10.3914 6.97716 9.21124 -0.00264979 -0.000604325 -9.01255e-05
50 2 9.98174 6.08954 9.07559 -0.00556881 -0.0152523 -0.0165486
51 2 9.71804 7.34533 9.83586 -0.00999332 0.0205921 -0.0200225
52 1 9.20199 10.0168 4.68661 0.00434602 -0.00128976 -0.00528053
53 2 9.85025 9.59798 5.28915 -0.0149177 -0.0131602 -0.000542786
54 2 8.64766 10.387 5.37235 0.00455266 -6.00105e-06 0.000817499
55 1 4.87842 11.6409 3.36665 -0.004961 -0.00415247 0.00265854
56 2 5.18904 10.7364 3.2375 0.0048762 -0.0126746 0.0172147
57 2 4.34897 11.8917 2.5027 -0.0153042 0.0168364 -0.0185204
58 1 5.98281 9.91935 9.55887 -0.00295044 0.00130791 -0.00324328
59 2 4.86219 12.6164 7.76483 -0.0213922 0.00694435 -0.00397497
60 2 7.12949 10.8092 10.4975 0.00221022 0.00896468 0.00893492
61 1 7.65757 4.62854 6.01158 -0.00179063 0.00641639 0.0106416
62 2 8.07842 4.95268 6.80102 -0.0184928 0.0051779 0.0321344
63 2 6.77021 5.02511 5.99801 0.00223619 -0.00585891 -0.0287183
64 1 5.08353 11.7354 7.76275 0.00522197 -0.0059961 -0.0062324
65 2 4.32234 11.2674 6.52949 0.0125236 -0.013711 -0.0153295
66 2 3.40837 4.58956 7.47836 0.00734855 0.0254632 0.0124543
67 1 11.4657 11.1383 8.05756 0.00427905 0.00918116 0.00243223
68 2 12.2119 10.9824 7.47501 -0.00181149 -0.0269942 -0.0159133
69 2 11.7657 10.6397 8.84868 -0.00586903 0.0221257 -0.0266199
70 1 9.96042 4.38155 4.08001 -0.00209512 0.00153793 -0.00149344
71 2 9.97752 13.8366 3.20106 0.013572 0.0137628 -0.0049146
72 2 9.01824 4.19967 4.24719 -0.000809773 -0.0102494 0.00191363
73 1 10.4934 7.62804 6.39538 0.00332514 0.00390048 0.00319869
74 2 10.4194 7.30284 7.28708 0.00708696 -0.0117098 -0.0204549
75 2 11.4321 7.86049 6.28734 0.000585461 0.00998615 0.0207548
76 1 12.7043 5.38968 10.2781 0.00137014 0.00107329 -0.000911637
77 2 12.0739 5.9101 9.71611 -0.00573619 -0.018603 -0.00986311
78 2 4.00992 5.50397 11.5977 0.0050311 -0.0137273 0.0309736
79 1 12.3598 8.88325 9.75166 -0.00862424 -0.00472605 -0.000693619
80 2 11.5043 8.49201 9.50051 0.00463935 -0.000868083 0.0116678