ITEM: TIMESTEP
0
ITEM: NUMBER OF ATOMS
96
ITEM: BOX BOUNDS pp pp pp
2.9236100000000000e+00 1.2773600000000000e+01
4.0306300000000004e+00 1.3880599999999999e+01
2.1372399999999998e+00 1.1987200000000000e+01
ITEM: ATOMS id type x y z vx vy vz
1 1 5.11698 13.8112 3.0023 -0.000811377 0.00429989 -0.00151024
2 2 4.83827 12.9121 3.22409 0.00715213 0.025168 0.0176864
3 2 11.2169 13.4245 3.06129 -0.00353546 0.00368006 -0.0094766
4 1 3.0054 9.86979 11.7175 -0.000284267 0.00157549 -0.00273316
5 2 11.9398 10.0958 11.4971 -0.00355423 0.00545249 -0.0161144
6 2 3.00471 9.19372 2.59999 0.0187049 0.00824841 0.000864457
7 1 12.7515 7.4555 3.03456 0.000573077 0.000647335 -0.00199377
8 2 11.8879 7.0293 3.0431 -0.0176221 -0.0176349 0.00299033
9 2 8.72528 8.77636 7.11261 0.00592137 0.0302539 -0.00298194
10 1 7.83924 9.11357 7.08196 -0.00429942 -0.000855896 -0.00445035
11 2 7.09555 7.88282 7.02237 0.00453895 0.00401276 -0.0191609
12 2 7.65515 9.47768 8.01927 0.00660276 -0.011553 -0.0181854
13 1 6.73961 9.54456 3.63524 -0.00517413 0.000796891 0.00678279
14 2 6.0646 9.09244 4.21754 0.00971858 -0.00562828 -0.0183045
15 2 6.93893 8.8957 2.89435 -0.000258966 0.00400725 -0.0186232
16 1 9.76254 7.30981 10.6564 -0.00300234 -0.00513776 -0.00306044
17 2 9.98825 6.98566 11.5357 0.00103654 -0.0178029 0.0219671
18 2 8.77016 7.24512 10.6173 -0.0094378 -0.014999 0.00245756
19 1 4.50536 6.6206 10.8015 -0.00716475 0.000122673 -0.0024627
20 2 3.94701 6.944 11.5467 0.0161372 -0.00042353 0.00746705
21 2 4.22144 8.45761 10.0293 -0.0348373 0.0181586 0.049839
22 1 10.1497 10.2215 11.1139 -0.0015636 0.000145633 0.00368782
23 2 9.8074 10.0947 2.24 -0.0112777 0.00196075 -0.0127749
24 2 10.105 9.30351 10.683 -0.00545848 0.00995722 0.00719996
25 1 4.3185 7.88314 5.45133 -0.00106082 -0.000595338 0.000534058
26 2 3.60592 8.04004 6.10885 0.0359937 0.00488297 0.00710249
27 2 3.6928 6.28682 5.53445 -0.0299272 -0.0158223 0.0048414
28 1 10.1245 6.8774 3.62164 0.000210275 -0.00570649 -0.00116298
29 2 9.41136 6.21332 3.93953 -0.0131841 -0.00144457 -0.0194721
30 2 9.80149 7.80748 3.85332 -0.0141218 -0.017863 0.00558132
31 1 11.5125 10.8814 5.28687 -0.00299388 0.00163046 -0.0044667
32 2 11.0534 11.7466 5.22843 -0.0170593 0.00418945 -0.0392721
33 2 12.2135 10.9463 4.6298 0.00366864 0.0179781 0.0171809
34 1 7.4908 4.5523 10.5682 0.0115312 -0.000411395 -0.00399123
35 2 7.65904 13.5005 10.3516 0.00670733 0.00696114 0.0177484
36 2 6.72785 4.59213 11.2214 0.00571065 0.00656448 0.0144068
37 1 8.55046 11.9483 9.96081 0.000360909 -0.00474256 -0.00271095
38 2 8.97788 12.6398 9.35526 -0.0296354 0.0144051 -0.00734457
39 2 9.30757 11.418 10.3442 0.015161 0.00307102 0.0189334
40 1 11.0377 13.7964 4.90799 -0.00343999 0.00307153 0.00119296
41 2 11.862 4.28091 5.32373 0.00957361 0.00199707 -0.00792852
42 2 10.4749 4.69001 4.69713 -0.00898869 0.00505393 0.00754814
43 1 3.48262 5.32779 5.37881 0.00606136 0.00237791 -0.00839441
44 2 3.19172 7.40757 3.96617 0.0151937 0.00269151 -0.0278886
45 2 4.8842 4.48144 3.74993 0.00254898 0.00122405 -0.00446826
46 1 9.90401 13.2983 8.02489 -0.00454951 9.46358e-05 -0.000545724
47 2 9.48673 12.9999 7.2288 -0.000636734 -0.00971991 -0.00688242
48 2 10.7674 12.8145 8.05767 -0.00445283 -0.0299725 0.00752117
49 1 11.0358 5.90113 8.73029 0.00556432 -0.00113556 -0.00207881
50 2 10.628 5.08622 8.47883 0.0149868 -0.00573668 0.0163463
51 2 10.4895 6.26311 9.52048 -0.0179708 -0.00577393 -0.00549938
52 1 9.45346 9.47501 3.84999 0.00272573 -0.00656235 -0.00381525
53 2 10.1092 9.9585 4.40866 -0.0207137 0.00974605 -0.0157331
54 2 8.58468 9.64128 4.25377 -0.00827269 -0.0130292 0.0122253
55 1 4.51818 11.1228 3.60574 0.000942516 -0.0013046 0.00414303
56 2 5.4238 10.7239 3.49363 0.00705765 -0.00328352 0.00925876
57 2 3.94456 10.7107 2.92197 0.0198397 0.0073866 -0.0087921
58 1 6.75686 9.97833 9.4224 0.000138591 0.00119915 -0.00266064
59 2 5.1095 10.4821 6.83607 0.00918124 -0.0232031 0.00206405
60 2 7.01777 10.8818 9.6824 -0.0134061 -0.00445702 -0.00821651
61 1 6.15846 4.78677 8.25601 -0.000674082 0.00246956 -0.000538901
62 2 6.5272 4.87187 9.17261 -0.00792232 -0.00681728 0.011576
63 2 5.22344 4.49065 8.18533 -0.0171116 0.00978191 0.0279424
64 1 4.79886 11.3625 6.50383 0.00394006 -0.0022276 0.00491596
65 2 4.53241 11.2616 5.55339 0.0191329 0.00607838 0.0138021
66 2 3.67288 12.5811 7.37237 0.00151434 -0.00681069 0.026311
67 1 11.9494 10.6168 8.01286 0.00499142 -0.00144994 -0.00419296
68 2 11.8728 10.717 7.01759 0.0121272 -0.0101109 0.0127805
69 2 2.96571 10.1785 8.213 0.00397173 0.00717383 -0.00750068
70 1 8.2322 5.34411 4.83983 0.00461296 0.00502125 -0.00335346
71 2 8.22668 4.42084 5.36662 -0.0101162 0.0386779 -0.00491365
72 2 7.70272 5.98932 5.31832 0.0119121 -0.0246019 0.00090704
73 1 10.4661 8.38402 7.30629 -0.00437192 -0.00108441 0.00452744
74 2 10.6415 7.78189 8.04606 -0.0211977 0.0002318 0.0088921
75 2 11.006 9.16672 7.47527 0.0201046 0.00834834 -0.0240571
76 1 3.82209 4.05246 10.4044 0.00521909 -0.00071334 0.00816856
77 2 3.02768 13.4198 10.5861 -0.0037169 0.0103369 0.0127578
78 2 3.97351 5.82368 10.5131 0.0195903 -0.00552846 -0.0147985
79 1 4.10139 9.24372 9.43635 0.0015986 -0.000338841 0.0095251
80 2 3.60085 9.82826 9.95102 0.00782532 0.027907 -0.0124065
81 2 5.76938 9.97677 9.2399 0.00282736 0.0208475 0.0467647
82 1 6.95256 7.86726 11.075 0.00298229 0.00390263 0.000266645
83 2 6.14221 7.36312 10.9476 0.010507 0.00314872 -0.0107803
84 2 7.09095 8.60641 10.4331 -0.0196002 0.000778888 0.0138061
85 1 11.2546 13.5358 11.949 -0.0110284 -0.00346962 0.00438024
86 2 10.9013 4.61363 11.7511 -0.0121835 -0.0129069 0.0163885
87 2 4.38994 13.8517 11.2083 -0.0280407 -0.0135367 0.00634208
88 1 7.57107 13.0282 6.21289 -0.00146875 0.00194032 0.00286141
89 2 7.33716 12.1384 6.02887 0.0161053 0.0427925 -0.043882
90 2 7.23204 13.2188 7.12769 0.0551721 -0.00579825 -0.0193501
91 1 6.42639 6.84311 6.6289 -0.000471363 0.00340413 0.00369357
92 2 4.99439 7.35976 6.03683 0.0128472 0.00581633 -0.0193452
93 2 6.34568 6.28978 7.39486 -0.0203785 0.000760652 -0.00258982
94 1 3.59489 13.4918 7.73349 0.00192949 -0.00138159 -0.00206136
95 2 3.60221 13.5167 8.72076 -0.0351389 -0.0170853 -0.00610409
96 2 3.78303 4.86767 6.18996 0.0144428 -0.0080664 0.00722606
ITEM: TIMESTEP
1
ITEM: NUMBER OF ATOMS
96
ITEM: BOX BOUNDS pp pp pp
2.9236100000000000e+00 1.2773600000000000e+01
4.0306300000000004e+00 1.3880599999999999e+01
2.1372399999999998e+00 1.1987200000000000e+01
ITEM: ATOMS id type x y z vx vy vz
1 1 5.11662 13.8134 3.00147 -0.000607745 0.00433483 -0.00180247
2 2 4.84174 12.924 3.23323 0.00659748 0.0216809 0.0188845
3 2 11.215 13.4269 3.05646 -0.0040464 0.00550287 -0.0091705
4 1 3.00528 9.87056 11.7161 -0.000194088 0.00149958 -0.00279076
5 2 11.937 10.0986 11.4893 -0.00719636 0.00559078 -0.0149652
6 2 3.01341 9.1973 2.59987 0.015858 0.00612474 -0.00141157
7 1 12.7518 7.45585 3.03358 0.000626117 0.000711994 -0.00199084
8 2 11.8781 7.02028 3.04454 -0.0208113 -0.0179536 0.0029219
9 2 8.73089 8.79058 7.11112 0.0164082 0.0265235 -0.00316433
10 1 7.83689 9.11312 7.07972 -0.00505622 -0.000949531 -0.00455352
11 2 7.09508 7.88095 7.01077 -0.0063599 -0.0116152 -0.0268226
12 2 7.65796 9.47185 8.01037 0.00440614 -0.0115567 -0.0169864
13 1 6.73698 9.54489 3.63864 -0.00529015 0.000536297 0.00675894
14 2 6.07053 9.08969 4.20741 0.0134266 -0.0057075 -0.0216476
15 2 6.93812 8.89837 2.88595 -0.00303138 0.00694623 -0.0146213
16 1 9.761 7.30726 10.6548 -0.0031677 -0.00511461 -0.00318775
17 2 9.98876 6.97674 11.5474 0.000749591 -0.0174236 0.0238823
18 2 8.76599 7.23768 10.6188 -0.00689733 -0.0146914 0.00351412
19 1 4.50169 6.62064 10.8003 -0.00745618 6.09982e-05 -0.00251057
20 2 3.9556 6.94435 11.5508 0.0178299 0.00157229 0.00887132
21 2 4.20404 8.46688 10.0537 -0.0347248 0.019056 0.0476619
22 1 10.1489 10.2214 11.1158 -0.00142494 -0.000331549 0.0040539
23 2 9.80216 10.0956 2.2316 -0.00985027 0.00144667 -0.0201167
24 2 10.1019 9.30964 10.6876 -0.00682855 0.0140401 0.010913
25 1 4.31792 7.88284 5.4517 -0.00121365 -0.000600532 0.000884717
26 2 3.62387 8.04311 6.1117 0.0351426 0.00750643 0.0048281
27 2 3.6776 6.27852 5.53641 -0.03066 -0.0165475 0.00319022
28 1 10.1245 6.87449 3.62106 -9.12653e-06 -0.00593698 -0.00114738
29 2 9.40543 6.21377 3.92966 -0.0104419 0.00304851 -0.0200257
30 2 9.79458 7.79752 3.85597 -0.0134101 -0.021509 0.00499376
31 1 11.511 10.8822 5.28463 -0.00319459 0.00170202 -0.00451212
32 2 11.0456 11.7485 5.20863 -0.014158 0.00313675 -0.0396803
33 2 12.2155 10.9556 4.63847 0.00444011 0.01887 0.0173358
34 1 7.49647 4.55224 10.5663 0.0111336 0.000179718 -0.00376093
35 2 7.66235 13.5026 10.3608 0.00664692 0.00113281 0.0189439
36 2 6.73178 4.5948 11.2279 0.0103179 0.00413879 0.0113987
37 1 8.55062 11.946 9.95939 0.000271005 -0.00446565 -0.00293884
38 2 8.96298 12.6462 9.35179 -0.0297157 0.0108103 -0.00634674
39 2 9.31501 11.4196 10.3537 0.0141936 0.00374554 0.0185276
40 1 11.036 13.7979 4.90857 -0.00349303 0.00276065 0.00114556
41 2 11.8666 4.28256 5.31946 0.00841745 0.00453566 -0.00926767
42 2 10.4705 4.69305 4.70117 -0.00840317 0.00696412 0.0086707
43 1 3.48568 5.32895 5.37464 0.00618123 0.00218983 -0.00824674
44 2 3.1999 7.40897 3.95234 0.0175841 0.00281683 -0.0267322
45 2 4.88495 4.48269 3.74856 0.000488259 0.00404974 -0.000919519
46 1 9.9018 13.2983 8.02469 -0.00428294 -1.04293e-06 -0.000283928
47 2 9.48627 12.9948 7.22477 -0.00109171 -0.0103828 -0.00890248
48 2 10.7643 12.7996 8.06102 -0.00847582 -0.0292972 0.0059204
49 1 11.0386 5.90067 8.72933 0.00548059 -0.000693578 -0.00172858
50 2 10.6351 5.0825 8.48661 0.013464 -0.00932392 0.0146054
51 2 10.4811 6.25998 9.51688 -0.015273 -0.00657188 -0.00890161
52 1 9.45486 9.47176 3.84808 0.00282715 -0.0064331 -0.00382237
53 2 10.0989 9.96326 4.40101 -0.0202432 0.00945278 -0.0146744
54 2 8.57995 9.63477 4.25976 -0.0101254 -0.0131503 0.0113845
55 1 4.51871 11.1222 3.6079 0.00117962 -0.00111793 0.00449158
56 2 5.42708 10.7223 3.49821 0.00594027 -0.00305064 0.0091289
57 2 3.95449 10.7148 2.9173 0.0197091 0.00886993 -0.00997945
58 1 6.75689 9.97892 9.42102 -1.00546e-05 0.00115704 -0.00283656
59 2 5.11351 10.4716 6.836 0.00674153 -0.0181692 -0.00246475
60 2 7.01141 10.8798 9.67837 -0.0116229 -0.0033271 -0.00774549
61 1 6.15814 4.78799 8.25566 -0.00062021 0.00240397 -0.000812014
62 2 6.52265 4.86816 9.17891 -0.0102221 -0.00798399 0.013272
63 2 5.21523 4.49554 8.20018 -0.0152568 0.00987222 0.0313144
64 1 4.80083 11.3613 6.50628 0.00394305 -0.00246542 0.00493504
65 2 4.54261 11.2642 5.56141 0.0214724 0.00430424 0.0177272
66 2 3.67408 12.5777 7.3863 0.00322954 -0.00686872 0.0290335
67 1 11.9519 10.6161 8.01073 0.00506465 -0.00147699 -0.00427866
68 2 11.8794 10.7119 7.02479 0.0141969 -0.0100462 0.015185
69 2 2.96675 10.1826 8.20869 0.000571272 0.00882704 -0.00951173
70 1 8.23456 5.34654 4.83816 0.00482879 0.00472567 -0.00338187
71 2 8.22135 4.44285 5.36303 -0.0109237 0.0480267 -0.0090531
72 2 7.70819 5.97659 5.31949 0.00946436 -0.0252838 0.00400682
73 1 10.4639 8.38343 7.30855 -0.00445426 -0.00123013 0.00450324
74 2 10.6309 7.7815 8.05047 -0.0209961 -0.00153376 0.00873607
75 2 11.0164 9.17168 7.46351 0.0210347 0.010661 -0.0228715
76 1 3.82475 4.05212 10.4084 0.00539616 -0.000679693 0.00794142
77 2 3.02469 13.4247 10.5936 -0.00822572 0.00944813 0.0171087
78 2 3.98424 5.82111 10.5052 0.0229122 -0.00482 -0.0165213
79 1 4.1023 9.24344 9.44101 0.00200867 -0.000775587 0.00917056
80 2 3.60362 9.84361 9.94608 0.00342849 0.0333534 -0.00766175
81 2 5.77115 9.98713 9.26366 0.00376903 0.0202682 0.0480251
82 1 6.95417 7.86921 11.0752 0.00344817 0.00388784 0.000637136
83 2 6.14684 7.36488 10.9415 0.00783789 0.0037089 -0.0135092
84 2 7.08019 8.60646 10.4399 -0.0231978 -6.44855e-05 0.0131281
85 1 11.2491 13.5342 11.9511 -0.0111338 -0.00309302 0.00415493
86 2 10.8959 4.60512 11.7601 -0.00958348 -0.0205781 0.0194868
87 2 4.37586 13.8448 11.2121 -0.0276906 -0.0140987 0.00917263
88 1 7.57036 13.0292 6.21441 -0.00130088 0.00202149 0.00311647
89 2 7.34462 12.159 6.00701 0.0132753 0.0384201 -0.0435428
90 2 7.25959 13.2159 7.11698 0.0543138 -0.00576511 -0.022003
91 1 6.42639 6.84519 6.6308 0.000468014 0.00488123 0.00387603
92 2 5.00219 7.36295 6.02674 0.0183251 0.00671879 -0.020971
93 2 6.33545 6.28979 7.39416 -0.0204667 -0.000641643 -5.68472e-05
94 1 3.59585 13.4912 7.73241 0.00192581 -0.00117149 -0.00226443
95 2 3.58462 13.5074 8.71695 -0.0352243 -0.0198909 -0.00887668
96 2 3.79 4.86356 6.19344 0.0132318 -0.00802391 0.00609464
ITEM: TIMESTEP
2
ITEM: NUMBER OF ATOMS
96
ITEM: BOX BOUNDS pp pp pp
2.9236100000000000e+00 1.2773600000000000e+01
4.0306300000000004e+00 1.3880599999999999e+01
2.1372399999999998e+00 1.1987200000000000e+01
ITEM: ATOMS id type x y z vx vy vz
1 1 5.11637 13.8155 3.0005 -0.000386522 0.0044229 -0.00207182
2 2 4.84487 12.9338 3.24297 0.00583988 0.0170862 0.0200386
3 2 11.2129 13.43 3.05212 -0.00449035 0.00679878 -0.00747967
4 1 3.00521 9.87129 11.7147 -0.000122705 0.00145413 -0.00287161
5 2 11.9326 10.1014 11.4821 -0.00990568 0.00521857 -0.0132961
6 2 3.02057 9.19984 2.59858 0.0125906 0.00410198 -0.00378252
7 1 12.7521 7.45621 3.03257 0.000548585 0.000730112 -0.00208436
8 2 11.8671 7.01135 3.04602 -0.0220239 -0.0172856 0.00314608
9 2 8.74169 8.80288 7.10945 0.0262221 0.022789 -0.00366901
10 1 7.83418 9.11262 7.07741 -0.00571101 -0.00101815 -0.00469631
11 2 7.08919 7.8712 6.99555 -0.0171171 -0.0273454 -0.0335779
12 2 7.65956 9.46612 8.00228 0.00178526 -0.0112294 -0.015091
13 1 6.73432 9.5451 3.642 -0.0053211 0.000291923 0.00662992
14 2 6.07803 9.08673 4.19589 0.0158586 -0.00650885 -0.023772
15 2 6.9359 8.90265 2.87973 -0.00581422 0.0103266 -0.0101231
16 1 9.75937 7.3047 10.6532 -0.00333526 -0.00515972 -0.00317467
17 2 9.989 6.96824 11.5596 -1.07443e-05 -0.0161783 0.023607
18 2 8.76326 7.23043 10.6208 -0.00381153 -0.0142432 0.00449499
19 1 4.4979 6.62066 10.799 -0.00764828 4.89056e-05 -0.00258298
20 2 3.96484 6.94557 11.5556 0.018767 0.00299501 0.0103253
21 2 4.18672 8.47667 10.077 -0.034516 0.020226 0.0449475
22 1 10.1483 10.2212 11.118 -0.001246 -0.000736011 0.00436507
23 2 9.79755 10.0961 2.21988 -0.00889059 0.000904222 -0.0257804
24 2 10.0982 9.31755 10.6939 -0.00822304 0.0168703 0.0137971
25 1 4.31729 7.88254 5.45221 -0.00129911 -0.000595924 0.00114624
26 2 3.64106 8.04755 6.11368 0.0330663 0.0103308 0.00363707
27 2 3.66214 6.27027 5.53764 -0.0310043 -0.0156167 0.00194158
28 1 10.1245 6.87146 3.62049 -0.000216025 -0.00617987 -0.00115409
29 2 9.40092 6.21637 3.9195 -0.00763702 0.00695211 -0.02062
30 2 9.78808 7.78597 3.85831 -0.0125418 -0.0240728 0.00441086
31 1 11.5093 10.8831 5.28236 -0.00343187 0.00183834 -0.00456983
32 2 11.0392 11.7497 5.18875 -0.0111167 0.00138648 -0.039608
33 2 12.2179 10.9652 4.64714 0.005684 0.0194362 0.0171611
34 1 7.50193 4.55248 10.5644 0.0106878 0.000796693 -0.00349632
35 2 7.66569 13.5016 10.3705 0.00677976 -0.00520089 0.0199628
36 2 6.73817 4.59627 11.2328 0.0153841 0.00183047 0.00794992
37 1 8.55073 11.9438 9.95787 0.000201449 -0.00421101 -0.00314067
38 2 8.94816 12.6506 9.34891 -0.0292961 0.00671118 -0.0050355
39 2 9.32176 11.4217 10.3627 0.01243 0.00554977 0.0171745
40 1 11.0342 13.7992 4.90914 -0.00352769 0.00248725 0.00111575
41 2 11.8704 4.28545 5.31446 0.00675941 0.00693045 -0.0108124
42 2 10.4665 4.69697 4.7058 -0.00752615 0.00852754 0.00987773
43 1 3.4888 5.32998 5.37056 0.00630239 0.0018567 -0.00804922
44 2 3.2093 7.41039 3.93944 0.0200797 0.00275177 -0.0243112
45 2 4.88469 4.48549 3.74901 -0.00147866 0.00726185 0.00258761
46 1 9.89973 13.2983 8.02461 -0.00399403 -0.000159247 -6.93497e-05
47 2 9.48564 12.9895 7.2199 -0.00131504 -0.0106641 -0.0101851
48 2 10.7589 12.7852 8.06359 -0.0131716 -0.0280459 0.0044392
49 1 11.0413 5.90044 8.72856 0.00536007 -0.000255118 -0.00135772
50 2 10.6415 5.0769 8.49344 0.0121423 -0.0131069 0.0125617
51 2 10.4742 6.25654 9.51158 -0.0122857 -0.00700026 -0.0122087
52 1 9.45629 9.46858 3.84617 0.00280588 -0.00631154 -0.00380085
53 2 10.089 9.96795 4.39399 -0.0190381 0.00942443 -0.0132775
54 2 8.57455 9.62813 4.26515 -0.0108747 -0.0135692 0.00985747
55 1 4.51936 11.1217 3.61023 0.00143713 -0.000953638 0.00483308
56 2 5.42974 10.7208 3.50276 0.00462768 -0.00260014 0.00914706
57 2 3.96427 10.7196 2.91199 0.0192619 0.0102628 -0.0113579
58 1 6.75685 9.97949 9.41956 -0.00015479 0.00112269 -0.00299684
59 2 5.11624 10.4639 6.83361 0.0041288 -0.0123428 -0.00709187
60 2 7.00615 10.8785 9.67465 -0.00902091 -0.00153907 -0.00697014
61 1 6.15784 4.78917 8.2552 -0.000623705 0.00232559 -0.00100856
62 2 6.51698 4.86389 9.18588 -0.0123769 -0.00908746 0.0142174
63 2 5.20818 4.50052 8.21664 -0.0125739 0.0101538 0.0343104
64 1 4.8028 11.36 6.50877 0.00398485 -0.00275723 0.00503942
65 2 4.55388 11.2659 5.57112 0.0233959 0.00249173 0.0204065
66 2 3.67611 12.5742 7.4014 0.00486911 -0.00728345 0.0309654
67 1 11.9545 10.6153 8.00858 0.00510158 -0.00150258 -0.00428464
68 2 11.887 10.707 7.03277 0.015902 -0.0095362 0.0158401
69 2 2.96628 10.1873 8.20349 -0.00193976 0.009968 -0.0109979
70 1 8.23703 5.34884 4.83645 0.00506003 0.00447426 -0.00349079
71 2 8.21576 4.46887 5.35757 -0.0111834 0.0543652 -0.0122847
72 2 7.71218 5.96404 5.32233 0.00608811 -0.0239181 0.00749681
73 1 10.4616 8.38279 7.31079 -0.00450093 -0.00129816 0.00447582
74 2 10.6205 7.78036 8.0548 -0.0204745 -0.0027336 0.00849792
75 2 11.027 9.17738 7.4524 0.0210917 0.0112831 -0.0214507
76 1 3.82749 4.05178 10.4123 0.00548568 -0.000681941 0.0076689
77 2 3.01945 13.4292 10.6032 -0.0125466 0.00891122 0.0208214
78 2 3.99642 5.81886 10.4966 0.0253888 -0.00432637 -0.017774
79 1 4.1034 9.24294 9.44552 0.00236157 -0.0011867 0.00891072
80 2 3.60428 9.86161 9.94336 -0.0003516 0.0381616 -0.00375882
81 2 5.77315 9.99704 9.28793 0.00372182 0.0190702 0.0487665
82 1 6.95601 7.87115 11.0756 0.0038957 0.00382067 0.00104428
83 2 6.15005 7.36683 10.9341 0.00492447 0.00390495 -0.0160414
84 2 7.06775 8.60635 10.4462 -0.0262523 8.44485e-05 0.0116895
85 1 11.2435 13.5327 11.9532 -0.0112118 -0.0027743 0.00387354
86 2 10.8917 4.59305 11.7706 -0.00747821 -0.0268271 0.0219252
87 2 4.36225 13.8376 11.2175 -0.0262185 -0.0144462 0.0128248
88 1 7.56977 13.0302 6.21601 -0.000995244 0.00225787 0.00318229
89 2 7.35044 12.1768 5.98533 0.00959388 0.0316419 -0.0432175
90 2 7.28635 13.213 7.10569 0.0520779 -0.00587602 -0.021615
91 1 6.42686 6.84799 6.63278 0.00137541 0.00629613 0.00400708
92 2 5.01272 7.36648 6.01586 0.0236022 0.00725947 -0.0224891
93 2 6.32521 6.28914 7.3948 -0.0203764 -0.00186034 0.00270196
94 1 3.59682 13.4906 7.73123 0.00192317 -0.000966307 -0.0024436
95 2 3.56699 13.4968 8.71188 -0.0353309 -0.0221276 -0.0110225
96 2 3.79626 4.85965 6.19605 0.0116244 -0.00734576 0.00387194
ITEM: TIMESTEP
3
ITEM: NUMBER OF ATOMS
96
ITEM: BOX BOUNDS pp pp pp
2.9236100000000000e+00 1.2773600000000000e+01
4.0306300000000004e+00 1.3880599999999999e+01
2.1372399999999998e+00 1.1987200000000000e+01
ITEM: ATOMS id type x y z vx vy vz
1 1 5.11624 13.8178 2.9994 -0.00016434 0.00455317 -0.00229153
2 2 4.84758 12.9411 3.25327 0.00500377 0.0118015 0.0210841
3 2 11.2105 13.4337 3.04898 -0.00482172 0.00750045 -0.00447233
4 1 3.00516 9.87201 11.7133 -8.16486e-05 0.00144146 -0.00297992
5 2 11.9271 10.1038 11.476 -0.0115383 0.00436105 -0.0111311
6 2 3.026 9.2014 2.59609 0.00899439 0.00214358 -0.00619029
7 1 12.7524 7.45658 3.03149 0.000345999 0.000700576 -0.00225955
8 2 11.856 7.003 3.04769 -0.0212097 -0.0156084 0.00367817
9 2 8.75711 8.81337 7.10745 0.0344701 0.0194614 -0.00443265
10 1 7.83118 9.1121 7.07502 -0.00620115 -0.00106831 -0.00485342
11 2 7.07796 7.8536 6.9772 -0.0275091 -0.0427649 -0.0392074
12 2 7.65975 9.46062 7.99528 -0.00110875 -0.0107164 -0.0128912
13 1 6.73166 9.54518 3.64527 -0.00526163 8.74676e-05 0.00640692
14 2 6.08639 9.08318 4.18364 0.0167992 -0.00815206 -0.0244759
15 2 6.9323 8.90869 2.87583 -0.00845723 0.0138918 -0.00549066
16 1 9.75766 7.3021 10.6516 -0.00349572 -0.00526872 -0.00302563
17 2 9.98875 6.96057 11.571 -0.00116929 -0.0141186 0.0212545
18 2 8.76218 7.22344 10.6233 -0.000432389 -0.0136542 0.00535387
19 1 4.49404 6.62069 10.7977 -0.00773972 9.609e-05 -0.00267615
20 2 3.97436 6.94735 11.5611 0.0189678 0.00377417 0.0117596
21 2 4.16952 8.48711 10.0987 -0.0342232 0.0216725 0.0417236
22 1 10.1477 10.2207 11.1202 -0.00101754 -0.00104907 0.0046044
23 2 9.79327 10.0965 2.20582 -0.00856891 0.000360792 -0.0293161
24 2 10.0937 9.32651 10.7014 -0.00962419 0.0181577 0.0156263
25 1 4.31662 7.88224 5.45284 -0.00131623 -0.000587956 0.0013151
26 2 3.65693 8.05344 6.11534 0.0299876 0.0132608 0.00358656
27 2 3.6466 6.26291 5.53835 -0.0310198 -0.0130719 0.00111895
28 1 10.1243 6.86831 3.61991 -0.000391858 -0.00643222 -0.00118897
29 2 9.39779 6.22073 3.90904 -0.00501636 0.0099573 -0.0211963
30 2 9.78204 7.77345 3.86038 -0.0115625 -0.0252634 0.00388167
31 1 11.5075 10.8841 5.28006 -0.00369619 0.00202932 -0.00464672
32 2 11.0345 11.7499 5.16902 -0.00805004 -0.000895518 -0.0390587
33 2 12.2211 10.975 4.65564 0.00734702 0.0196642 0.0167397
34 1 7.50716 4.55303 10.5628 0.0102166 0.00140003 -0.00321927
35 2 7.66913 13.4974 10.3808 0.0070569 -0.0115002 0.0208866
36 2 6.74716 4.59663 11.2359 0.0205928 -0.000277474 0.00433255
37 1 8.55082 11.9418 9.95625 0.000143202 -0.00398482 -0.00330965
38 2 8.93369 12.6529 9.34675 -0.0283423 0.00236118 -0.00358562
39 2 9.32744 11.4251 10.3709 0.00996323 0.00832549 0.0149862
40 1 11.0324 13.8003 4.90969 -0.00354905 0.00225855 0.00110285
41 2 11.8733 4.28949 5.30865 0.0047045 0.00913521 -0.0125002
42 2 10.463 4.70158 4.71105 -0.00639557 0.00967709 0.0111404
43 1 3.49198 5.33081 5.36659 0.00642433 0.0013898 -0.00781823
44 2 3.21998 7.41172 3.92803 0.0225819 0.0024948 -0.0208857
45 2 4.88348 4.48995 3.75115 -0.00325053 0.0105494 0.00565511
46 1 9.8978 13.2982 8.02462 -0.00370006 -0.000373342 8.93804e-05
47 2 9.48495 12.9842 7.21458 -0.0013063 -0.0105025 -0.0106682
48 2 10.7511 12.7716 8.06546 -0.0182319 -0.0263526 0.00311029
49 1 11.0439 5.90042 8.72798 0.0052048 0.000151289 -0.000988944
50 2 10.6472 5.06939 8.49918 0.0111636 -0.0167178 0.0103475
51 2 10.4689 6.25298 9.50467 -0.00916978 -0.00702584 -0.015237
52 1 9.45767 9.46545 3.84428 0.00266777 -0.00619768 -0.00374242
53 2 10.0798 9.97269 4.38773 -0.0172345 0.00961709 -0.0116281
54 2 8.56907 9.6212 4.26961 -0.0104659 -0.0142653 0.00765307
55 1 4.52014 11.1212 3.61273 0.00170588 -0.000807487 0.00516084
56 2 5.43171 10.7197 3.50736 0.00319963 -0.00196166 0.00930583
57 2 3.97375 10.725 2.90595 0.0185309 0.0115865 -0.0128781
58 1 6.75674 9.98004 9.41803 -0.000294356 0.00110454 -0.00314042
59 2 5.11764 10.4593 6.82891 0.00153984 -0.0062244 -0.0115458
60 2 7.00239 10.8782 9.6714 -0.00567218 0.000722369 -0.00598214
61 1 6.15752 4.79032 8.25465 -0.000678414 0.00223743 -0.0011198
62 2 6.51028 4.85908 9.19313 -0.0142656 -0.0100901 0.0143958
63 2 5.20266 4.50569 8.23449 -0.00927331 0.0105707 0.0367941
64 1 4.80481 11.3586 6.51132 0.00406013 -0.00307651 0.00523241
65 2 4.566 11.2667 5.58181 0.0248119 0.000703163 0.0215404
66 2 3.67894 12.5704 7.41726 0.00643201 -0.0080087 0.0320134
67 1 11.957 10.6146 8.00645 0.00508979 -0.00152135 -0.00420927
68 2 11.8953 10.7024 7.04063 0.0172035 -0.00855647 0.0146308
69 2 2.96481 10.1925 8.19769 -0.00331175 0.0104816 -0.0118444
70 1 8.23962 5.35102 4.83467 0.00529172 0.0043121 -0.0036803
71 2 8.21017 4.49721 5.35075 -0.0108743 0.0570628 -0.0143319
72 2 7.71428 5.95267 5.32698 0.00199517 -0.0206359 0.0111185
73 1 10.4594 8.38213 7.31302 -0.0045126 -0.00128689 0.00444433
74 2 10.6104 7.77876 8.05897 -0.0196512 -0.00336289 0.00814124
75 2 11.0375 9.18296 7.44206 0.020197 0.0102071 -0.019765
76 1 3.83024 4.05143 10.4161 0.00547704 -0.000734066 0.00737965
77 2 3.01215 13.4336 10.6145 -0.0163209 0.00894365 0.0237509
78 2 4.00962 5.81679 10.4874 0.0269631 -0.00414869 -0.0185359
79 1 4.10466 9.24225 9.44992 0.00263271 -0.00153415 0.00876691
80 2 3.60326 9.88177 9.94233 -0.00310891 0.0417196 -0.00101267
81 2 5.77487 10.0062 9.31243 0.00272305 0.0172841 0.0490425
82 1 6.95806 7.87303 11.0763 0.00430669 0.003698 0.001473
83 2 6.15177 7.36879 10.9255 0.00201048 0.00381672 -0.018274
84 2 7.05393 8.60655 10.4516 -0.0287294 0.00117583 0.00960509
85 1 11.2378 13.5314 11.955 -0.0112504 -0.00254501 0.00354927
86 2 10.8884 4.57829 11.7821 -0.00609041 -0.0310951 0.0235295
87 2 4.34964 13.8303 11.2249 -0.0237993 -0.0145458 0.0170342
88 1 7.56936 13.0314 6.21759 -0.000575469 0.00260253 0.00305433
89 2 7.35422 12.1907 5.9638 0.00530108 0.0231671 -0.0428898
90 2 7.31167 13.2101 7.09537 0.0486232 -0.00608622 -0.0181396
91 1 6.42777 6.85148 6.63481 0.00222988 0.00760485 0.00408246
92 2 5.02579 7.37021 6.00425 0.0283376 0.00763119 -0.023935
93 2 6.31507 6.28793 7.39687 -0.0201015 -0.00282139 0.00558196
94 1 3.59778 13.4902 7.72996 0.00192104 -0.000775627 -0.00260119
95 2 3.54929 13.4853 8.70593 -0.035476 -0.023674 -0.0123836
96 2 3.80163 4.85622 6.19731 0.0097063 -0.00612652 0.000775177
