ITEM: TIMESTEP
0
ITEM: NUMBER OF ATOMS
96
ITEM: BOX BOUNDS pp pp pp
2.9236100000000000e+00 1.2773600000000000e+01
4.0306300000000004e+00 1.3880599999999999e+01
2.1372399999999998e+00 1.1987200000000000e+01
ITEM: ATOMS id type x y z vx vy vz
1 1 5.11796 13.8069 3.00352 0.00111153 -0.00440337 0.000953226
2 2 4.83086 12.8849 3.20761 -0.00730113 -0.0277606 -0.0152875
3 2 11.2199 13.4231 3.06976 0.00248421 0.00112194 0.00632239
4 1 3.00578 9.86811 11.7202 0.000447506 -0.00180359 0.00266738
5 2 11.939 10.091 11.5139 -0.00542715 -0.00370137 0.0169282
6 2 2.98366 9.18322 2.59698 -0.0228349 -0.0128774 -0.00499752
7 1 12.7511 7.45496 3.03666 -0.00011934 -0.000406223 0.00230735
8 2 11.9006 7.04574 3.03979 0.00636786 0.0145822 -0.0038342
9 2 8.72951 8.7428 7.11577 0.0129684 -0.036065 0.00370738
10 1 7.84275 9.1143 7.08637 0.00275257 0.000568653 0.00444624
11 2 7.08014 7.86352 7.03316 -0.0259644 -0.0339793 0.00193596
12 2 7.6469 9.48876 8.03761 -0.00924348 0.0100024 0.0171669
13 1 6.74459 9.54351 3.62854 0.0047334 -0.00126302 -0.00649901
14 2 6.05957 9.09855 4.23156 0.000304607 0.00698464 0.00911214
15 2 6.93657 8.89394 2.91614 -0.00467617 -0.000446489 0.0238267
16 1 9.76539 7.31504 10.6592 0.00271452 0.00537783 0.00242466
17 2 9.98742 7.003 11.5178 -0.000174768 0.0161467 -0.0120465
18 2 8.78141 7.26029 10.6159 0.0122103 0.0152272 -0.000269637
19 1 4.51214 6.62038 10.8039 0.0063193 -0.000340856 0.00244523
20 2 3.9333 6.94689 11.5405 -0.0106172 0.00572162 -0.00499347
21 2 4.25627 8.44013 9.9778 0.0346706 -0.0169048 -0.0526764
22 1 10.1514 10.2208 11.1106 0.00177396 -0.00121749 -0.00287484
23 2 9.82037 10.0923 2.24434 0.0147032 -0.00284541 -0.00450972
24 2 10.1091 9.29849 10.6801 0.0028346 0.00027767 0.00152321
25 1 4.31935 7.88371 5.45123 0.000583336 0.000532324 0.000389578
26 2 3.57042 8.0375 6.09854 -0.0336453 -0.000523838 -0.0142198
27 2 3.72148 6.30026 5.52757 0.0269267 0.00960665 -0.00922178
28 1 10.1241 6.88289 3.62283 -0.000602478 0.00528198 0.00122301
29 2 9.42699 6.21952 3.95854 0.0175967 0.0109071 0.0186941
30 2 9.81611 7.821 3.8472 0.0148436 0.00892035 -0.00653918
31 1 11.5153 10.8798 5.2913 0.00272139 -0.00170159 0.00438329
32 2 11.0731 11.7422 5.26683 0.022102 -0.00381128 0.0371139
33 2 12.2101 10.9295 4.61316 -0.00357677 -0.0153116 -0.0156948
34 1 7.47894 4.55324 10.5724 -0.012101 0.00138374 0.00426551
35 2 7.65206 13.4887 10.3353 -0.00746355 -0.0153744 -0.0145653
36 2 6.72598 4.5831 11.2047 0.000926592 -0.0114487 -0.0180896
37 1 8.54998 11.9533 9.96327 -0.000614918 0.00533523 0.00220839
38 2 9.00697 12.6225 9.36317 0.0281482 -0.0193113 0.00793976
39 2 9.29223 11.4144 10.3258 -0.0148437 -0.00524067 -0.0168527
40 1 11.0411 13.793 4.90673 0.00326529 -0.00376125 -0.00133688
41 2 11.8518 4.28154 5.33057 -0.0101971 0.00326541 0.00600772
42 2 10.4842 4.68711 4.6906 0.00928497 -0.000632331 -0.00562037
43 1 3.47668 5.32537 5.38729 -0.00583021 -0.00232557 0.00848772
44 2 3.17874 7.40516 3.99381 -0.0109835 -0.00199904 0.0259512
45 2 4.8796 4.48238 3.7576 -0.00653985 0.00222247 0.0102108
46 1 9.90879 13.2982 8.02573 0.00494626 -9.25294e-05 0.00115702
47 2 9.48671 13.0087 7.23306 -0.000801374 0.00763084 0.00123171
48 2 10.7688 12.8445 8.04846 -0.000559852 0.0292474 -0.010966
49 1 11.0302 5.90268 8.73267 -0.00562018 0.00192279 0.00262491
50 2 10.6114 5.0889 8.46117 -0.0180271 0.000414038 -0.0184341
51 2 10.5097 6.26779 9.5227 0.0218829 0.00337569 -0.000717216
52 1 9.45096 9.48171 3.85378 -0.00217598 0.00683959 0.00375673
53 2 10.1295 9.94818 4.42505 0.0190838 -0.0111612 0.0166098
54 2 8.59016 9.65448 4.24134 0.00199309 0.0136335 -0.0120807
55 1 4.51745 11.1243 3.60195 -0.000555129 0.00175601 -0.00344707
56 2 5.41588 10.7272 3.48409 -0.0084841 0.00305501 -0.00996228
57 2 3.92492 10.7049 2.92979 -0.0191206 -0.00411183 0.00707843
58 1 6.75657 9.97709 9.42487 -0.000430503 -0.00128443 0.00226586
59 2 5.09824 10.5091 6.82984 -0.0127931 0.0290538 -0.00976987
60 2 7.03213 10.8866 9.69072 0.0145164 0.00441838 0.00803159
61 1 6.15925 4.78425 8.25621 0.000964853 -0.00255106 -0.000187901
62 2 6.53277 4.87748 9.16342 0.00322295 0.00439128 -0.00622959
63 2 5.24144 4.48073 8.16101 0.0178749 -0.0103042 -0.0205534
64 1 4.79488 11.3646 6.49886 -0.00406017 0.00201273 -0.00509712
65 2 4.51591 11.2538 5.54439 -0.0137089 -0.00932471 -0.00375405
66 2 3.67315 12.5882 7.34945 0.00210753 0.00767118 -0.0190013
67 1 11.9445 10.6182 8.0169 -0.00480746 0.00141611 0.00382441
68 2 11.863 10.7268 7.0087 -0.00717031 0.00914146 -0.0038979
69 2 2.95779 10.1733 8.21812 -0.0119943 -0.00304689 0.00256895
70 1 8.22778 5.33879 4.84323 -0.00426498 -0.00558169 0.00349602
71 2 8.23549 4.39372 5.36682 0.00706197 -0.0142276 -0.0047193
72 2 7.68938 6.01124 5.31996 -0.0137748 0.0174524 0.00356455
73 1 10.4704 8.38489 7.30174 0.00412597 0.00060264 -0.00455649
74 2 10.6626 7.77939 8.03703 0.0206357 -0.00517801 -0.00925256
75 2 10.9875 9.1622 7.50031 -0.0163996 0.000489193 0.0258411
76 1 3.81712 4.05323 10.3961 -0.00467168 0.000822187 -0.00840463
77 2 3.02708 13.4085 10.5782 -0.00437535 -0.0121498 -0.00282819
78 2 3.95797 5.83001 10.5257 -0.010927 0.00708593 0.0101149
79 1 4.10023 9.24364 9.42641 -0.000731643 -0.000459858 -0.0103881
80 2 3.58851 9.80575 9.96858 -0.0164329 -0.0178257 0.0226415
81 2 5.76842 9.95596 9.19494 0.00166328 -0.0201824 -0.0426269
82 1 6.95005 7.86339 11.0751 -0.0020595 -0.00381017 0.000333586
83 2 6.12948 7.36095 10.9555 -0.0143509 -0.000749171 0.00509183
84 2 7.10647 8.60383 10.4194 0.0110302 -0.00520616 -0.0128212
85 1 11.2655 13.5397 11.9445 0.0107886 0.00426057 -0.00464365
86 2 10.9163 4.61807 11.7383 0.0179007 -0.00417383 -0.00906946
87 2 4.4171 13.8645 11.2038 0.0250274 0.0118927 -0.00372264
88 1 7.57256 13.0262 6.21046 0.0013563 -0.00233595 -0.00184878
89 2 7.31924 12.094 6.07303 -0.0186587 -0.0430103 0.0442732
90 2 7.17744 13.2248 7.14164 -0.0526235 0.00648743 0.0062312
91 1 6.42782 6.84121 6.62544 0.00238382 -0.000397661 -0.00318089
92 2 4.98701 7.35545 6.05446 -0.00220752 -0.00207189 0.01582
93 2 6.3658 6.28751 7.39965 0.019671 -0.00382343 0.00656059
94 1 3.59295 13.4934 7.73532 -0.00194418 0.0017952 0.0015683
95 2 3.63727 13.5305 8.72369 0.0349885 0.0102704 -0.000390406
96 2 3.76783 4.8751 6.18283 -0.0154708 0.00613035 -0.00574017
ITEM: TIMESTEP
1
ITEM: NUMBER OF ATOMS
96
ITEM: BOX BOUNDS pp pp pp
2.9236100000000000e+00 1.2773600000000000e+01
4.0306300000000004e+00 1.3880599999999999e+01
2.1372399999999998e+00 1.1987200000000000e+01
ITEM: ATOMS id type x y z vx vy vz
1 1 5.11854 13.8047 3.00393 0.00119055 -0.00453532 0.000725119
2 2 4.82728 12.8711 3.20026 -0.00681134 -0.0266847 -0.0140972
3 2 11.221 13.4243 3.07226 0.00201289 0.00384025 0.00332429
4 1 3.00602 9.86717 11.7215 0.000476242 -0.0019483 0.00264736
5 2 11.9351 10.0895 11.5224 -0.0100258 -0.00218945 0.0166988
6 2 2.97187 9.17617 2.594 -0.0240086 -0.0153742 -0.00684825
7 1 12.7511 7.45479 3.03788 0.000229232 -0.000253932 0.00260654
8 2 11.9021 7.0525 3.03772 -0.000782362 0.0123112 -0.00447783
9 2 8.73794 8.72426 7.11781 0.0194792 -0.0373952 0.00461603
10 1 7.84395 9.11454 7.08861 0.0020888 0.000364262 0.0045746
11 2 7.06458 7.84296 7.03187 -0.03589 -0.0475889 -0.00716763
12 2 7.64212 9.49341 8.04572 -0.00951059 0.00823913 0.0144538
13 1 6.74689 9.54283 3.62535 0.00444046 -0.00141954 -0.00619782
14 2 6.06111 9.1023 4.23483 0.00591625 0.00806255 0.00393769
15 2 6.9337 8.89392 2.9284 -0.00658915 -0.000239299 0.0245112
16 1 9.76672 7.31777 10.6603 0.00260938 0.00557443 0.00196695
17 2 9.98755 7.01069 11.5135 0.000821141 0.0144031 -0.00478449
18 2 8.78765 7.2679 10.616 0.0123008 0.0151774 0.00081165
19 1 4.51518 6.62018 10.8051 0.00579608 -0.000466597 0.00247291
20 2 3.92884 6.95049 11.5383 -0.00695997 0.00877188 -0.00398206
21 2 4.27354 8.43182 9.95123 0.0342959 -0.016306 -0.053411
22 1 10.1523 10.2201 11.1093 0.00187717 -0.00175328 -0.002474
23 2 9.82815 10.0908 2.23986 0.016256 -0.00320681 -0.0130587
24 2 10.1102 9.29997 10.682 0.00159013 0.00541964 0.00585698
25 1 4.31957 7.88396 5.45156 0.000283815 0.000470833 0.000926865
26 2 3.55423 8.0377 6.09038 -0.030539 0.0011247 -0.0185715
27 2 3.73446 6.30395 5.52235 0.0248369 0.00472667 -0.0117169
28 1 10.1238 6.88548 3.62345 -0.000734262 0.00508308 0.00124369
29 2 9.43621 6.22612 3.96783 0.0189108 0.0152649 0.0185651
30 2 9.82355 7.82431 3.84384 0.0147406 0.00451167 -0.00679514
31 1 11.5166 10.8789 5.29348 0.00264978 -0.00184246 0.00433162
32 2 11.0847 11.7406 5.28501 0.0241546 -0.00235001 0.0354587
33 2 12.2082 10.9222 4.6056 -0.00419852 -0.0136036 -0.0143436
34 1 7.47284 4.55403 10.5745 -0.0122429 0.0017193 0.00427539
35 2 7.64818 13.4803 10.3285 -0.00816623 -0.0173782 -0.0124715
36 2 6.72699 4.57678 11.1954 0.00244349 -0.013763 -0.0183403
37 1 8.54963 11.956 9.96431 -0.00077359 0.00563544 0.00195016
38 2 9.02077 12.6124 9.36708 0.0269054 -0.0204495 0.00739977
39 2 9.28501 11.4112 10.3179 -0.0138577 -0.00788987 -0.0145336
40 1 11.0427 13.791 4.90604 0.00314116 -0.00411148 -0.00142862
41 2 11.8468 4.28383 5.3334 -0.00969633 0.00583676 0.00543454
42 2 10.4888 4.68737 4.688 0.00906023 0.0015923 -0.00482201
43 1 3.47379 5.32425 5.39153 -0.00572187 -0.00211985 0.00842163
44 2 3.17372 7.40428 4.00618 -0.0092389 -0.00147146 0.0228797
45 2 4.87586 4.48369 3.76324 -0.00829103 0.00249816 0.0118394
46 1 9.9113 13.2982 8.02639 0.00504639 -2.5153e-06 0.0014734
47 2 9.4861 13.0122 7.23288 -0.00162948 0.00644041 -0.00195631
48 2 10.7682 12.8588 8.04253 -0.00123272 0.0278185 -0.0127632
49 1 11.0274 5.90373 8.73403 -0.00559374 0.00222451 0.00277933
50 2 10.602 5.08866 8.45183 -0.0192734 -0.000874203 -0.0186118
51 2 10.521 6.26914 9.52167 0.0228319 0.00199847 -0.00306544
52 1 9.44997 9.48517 3.85565 -0.0017596 0.00698387 0.00372768
53 2 10.1386 9.94236 4.43335 0.0169163 -0.0122267 0.0163906
54 2 8.59022 9.66143 4.23545 -0.00185686 0.0142729 -0.0113222
55 1 4.51721 11.1252 3.60031 -0.000411482 0.00202243 -0.00310853
56 2 5.41154 10.7286 3.47899 -0.00873626 0.00260838 -0.0105213
57 2 3.91553 10.7033 2.93317 -0.0183071 -0.00232972 0.00654492
58 1 6.75632 9.97644 9.42595 -0.000561895 -0.00132274 0.00205022
59 2 5.09154 10.5239 6.82416 -0.0136427 0.0291254 -0.0124688
60 2 7.03933 10.8886 9.69461 0.0139611 0.0032934 0.00735269
61 1 6.15978 4.78297 8.25601 0.00119941 -0.00256197 -0.000612713
62 2 6.5338 4.87937 9.16111 0.000907476 0.00315195 -0.00283409
63 2 5.25022 4.47545 8.15169 0.0167674 -0.0109224 -0.0167264
64 1 4.79282 11.3656 6.49627 -0.00418207 0.0020752 -0.0052706
65 2 4.50976 11.2488 5.54386 -0.0109203 -0.0107236 0.00151543
66 2 3.67467 12.5922 7.34099 0.00398775 0.00842283 -0.014714
67 1 11.9421 10.6189 8.01875 -0.00473737 0.00141928 0.00357557
68 2 11.8601 10.7312 7.00811 -0.00446148 0.0082783 0.00174435
69 2 2.95078 10.1723 8.21876 -0.015776 -0.00100727 3.34319e-05
70 1 8.22568 5.33594 4.84501 -0.00413969 -0.00577851 0.00362829
71 2 8.23854 4.38994 5.36323 0.00496881 -0.000893383 -0.00948916
72 2 7.6825 6.01864 5.32214 -0.0133147 0.0114904 0.00488013
73 1 10.4724 8.38512 7.29946 0.00398623 0.0003038 -0.00455031
74 2 10.6728 7.77609 8.03233 0.0198991 -0.00810392 -0.00964755
75 2 10.9799 9.16382 7.51341 -0.0141707 0.00622698 0.02647
76 1 3.81486 4.05365 10.3919 -0.00434368 0.000864661 -0.008392
77 2 3.02404 13.4023 10.5781 -0.00731118 -0.0125791 0.00238558
78 2 3.95372 5.83373 10.5301 -0.00595506 0.00767543 0.00728551
79 1 4.09997 9.24332 9.4211 -0.000337406 -0.000759818 -0.0108228
80 2 3.57935 9.79788 9.98113 -0.0196243 -0.014413 0.0271537
81 2 5.76999 9.9461 9.17428 0.00483707 -0.0190164 -0.0398028
82 1 6.94913 7.8615 11.0753 -0.00162834 -0.0037283 0.000561696
83 2 6.12198 7.36099 10.9573 -0.0152905 0.00109192 0.00228705
84 2 7.11082 8.60047 10.4133 0.00625414 -0.00847682 -0.0113146
85 1 11.2709 13.5419 11.9422 0.010682 0.00460565 -0.00468699
86 2 10.926 4.61386 11.7347 0.0205259 -0.0122543 -0.00531736
87 2 4.42892 13.8702 11.202 0.0216973 0.0108692 -0.00397611
88 1 7.57319 13.0249 6.2097 0.00108479 -0.00281318 -0.00113752
89 2 7.30986 12.0732 6.09517 -0.0183195 -0.0389143 0.0440947
90 2 7.15179 13.2282 7.14257 -0.0493695 0.00719355 -0.00327474
91 1 6.42925 6.84138 6.62393 0.00332767 0.00106172 -0.00285815
92 2 4.98713 7.35506 6.0619 0.00228032 0.000848498 0.0138538
93 2 6.3755 6.2852 7.40332 0.0189542 -0.00558432 0.00789744
94 1 3.59198 13.4943 7.73603 -0.0019585 0.00199663 0.0012712
95 2 3.65475 13.5347 8.72266 0.034918 0.00649754 -0.00358566
96 2 3.76009 4.87776 6.18047 -0.0152727 0.0042195 -0.00311769
ITEM: TIMESTEP
2
ITEM: NUMBER OF ATOMS
96
ITEM: BOX BOUNDS pp pp pp
2.9236100000000000e+00 1.2773600000000000e+01
4.0306300000000004e+00 1.3880599999999999e+01
2.1372399999999998e+00 1.1987200000000000e+01
ITEM: ATOMS id type x y z vx vy vz
1 1 5.11915 13.8024 3.00425 0.00121779 -0.00470974 0.000545729
2 2 4.82405 12.8582 3.19351 -0.0059495 -0.0241244 -0.0128994
3 2 11.2219 13.4269 3.07308 0.00161041 0.00658103 -0.000205106
4 1 3.00626 9.86616 11.7228 0.000439309 -0.00210798 0.00263
5 2 11.929 10.0888 11.5306 -0.0141608 -0.00035577 0.0161433
6 2 2.95965 9.16785 2.59013 -0.02455 -0.0179522 -0.00859026
7 1 12.7513 7.45471 3.03927 0.000609494 -0.000100794 0.00298084
8 2 11.8998 7.05805 3.03531 -0.00814928 0.00993254 -0.00515781
9 2 8.74899 8.7054 7.12039 0.0232647 -0.037218 0.00585417
10 1 7.84484 9.11466 7.09094 0.00156657 0.000120023 0.00479807
11 2 7.04425 7.81593 7.02599 -0.0448497 -0.0595792 -0.016161
12 2 7.63739 9.497 8.05206 -0.00901085 0.00575326 0.0101166
13 1 6.74903 9.54209 3.62234 0.00412416 -0.00149917 -0.00580564
14 2 6.06549 9.10661 4.2355 0.0114401 0.00917077 -0.0011422
15 2 6.92998 8.8937 2.94065 -0.00801156 -0.00124718 0.023717
16 1 9.768 7.32061 10.6612 0.00253972 0.0058003 0.00146723
17 2 9.98824 7.0174 11.513 0.00199878 0.0123515 0.00322743
18 2 8.79371 7.27547 10.6167 0.0115676 0.0150432 0.00186867
19 1 4.51794 6.61991 10.8064 0.00523305 -0.000582853 0.00252036
20 2 3.92634 6.95566 11.5365 -0.00288291 0.0119009 -0.00314618
21 2 4.29057 8.42382 9.92439 0.0336663 -0.0155637 -0.0537587
22 1 10.1533 10.219 11.1081 0.00200075 -0.00224855 -0.00210861
23 2 9.83663 10.0891 2.23128 0.0174128 -0.00350877 -0.0205901
24 2 10.1107 9.30391 10.686 0.000391297 0.00988228 0.00971008
25 1 4.31963 7.88418 5.45216 -3.52328e-05 0.000391918 0.00148487
26 2 3.53988 8.03862 6.07997 -0.0263567 0.00239312 -0.0230728
27 2 3.74632 6.30499 5.51585 0.0225539 -0.000797547 -0.0142176
28 1 10.1234 6.88797 3.62407 -0.00079969 0.00488834 0.00124138
29 2 9.4459 6.23478 3.97711 0.0194532 0.0190149 0.0186752
30 2 9.83085 7.82551 3.8404 0.0142717 0.000714279 -0.00683846
31 1 11.5179 10.878 5.29563 0.00261539 -0.00204391 0.00426596
32 2 11.0973 11.7398 5.30229 0.0258941 -0.000140458 0.0335031
33 2 12.2059 10.9159 4.59882 -0.00518409 -0.0117032 -0.0126226
34 1 7.4667 4.55496 10.5767 -0.0122797 0.00193965 0.00418696
35 2 7.64389 13.4713 10.3228 -0.00903083 -0.017767 -0.0100382
36 2 6.72842 4.56934 11.1864 0.00252932 -0.0159105 -0.0173448
37 1 8.54921 11.9589 9.96522 -0.000942761 0.00592641 0.00169803
38 2 9.03388 12.6021 9.37057 0.0254416 -0.0207176 0.00630559
39 2 9.27837 11.4065 10.3113 -0.0126393 -0.0112908 -0.0115844
40 1 11.0442 13.7889 4.9053 0.00299516 -0.00444293 -0.00152789
41 2 11.8421 4.28738 5.336 -0.00876581 0.00824389 0.00507515
42 2 10.4933 4.6887 4.68578 0.00865972 0.00360852 -0.00412532
43 1 3.47096 5.32325 5.39571 -0.00562015 -0.00183234 0.0082836
44 2 3.1695 7.40369 4.01669 -0.00775265 -0.000867016 0.0185981
45 2 4.87131 4.48488 3.76944 -0.00979104 0.00172418 0.0124239
46 1 9.91384 13.2982 8.0272 0.00506763 0.000135208 0.00177334
47 2 9.48508 13.0151 7.2311 -0.00239839 0.00531941 -0.00503719
48 2 10.7676 12.8723 8.0357 -0.000615214 0.0257291 -0.0145854
49 1 11.0246 5.9049 8.73545 -0.00553207 0.0024463 0.00283289
50 2 10.5921 5.08803 8.44256 -0.020209 -0.00111187 -0.0181611
51 2 10.5325 6.26979 9.51963 0.0229743 0.000675035 -0.00460874
52 1 9.4492 9.48869 3.85751 -0.00128141 0.007129 0.00371316
53 2 10.1464 9.93595 4.44144 0.0138832 -0.0134527 0.0157615
54 2 8.5883 9.66875 4.23002 -0.00571046 0.0150474 -0.0103027
55 1 4.51704 11.1263 3.59884 -0.000301226 0.00231398 -0.00278099
56 2 5.40714 10.7298 3.47357 -0.00868495 0.00197331 -0.011198
57 2 3.90661 10.7026 2.93633 -0.0172458 -0.000474291 0.00619648
58 1 6.75601 9.97577 9.42692 -0.000675434 -0.0013579 0.00182626
59 2 5.0846 10.5382 6.81737 -0.0137066 0.0269981 -0.0141553
60 2 7.04609 10.8899 9.69807 0.0127941 0.00156422 0.00631486
61 1 6.16045 4.78169 8.2556 0.00148625 -0.00255118 -0.00105813
62 2 6.53368 4.88063 9.16059 -0.00137914 0.00189204 0.000817611
63 2 5.25821 4.46981 8.14428 0.0148138 -0.0117324 -0.012901
64 1 4.7907 11.3667 6.49359 -0.00433968 0.00226576 -0.00547656
65 2 4.50499 11.2431 5.54591 -0.00828953 -0.0119397 0.00637532
66 2 3.67714 12.5966 7.33474 0.00589615 0.00921507 -0.0102254
67 1 11.9398 10.6196 8.02048 -0.00470945 0.0014415 0.0033119
68 2 11.8585 10.7351 7.01044 -0.00175217 0.00727703 0.00754167
69 2 2.94201 10.1723 8.21815 -0.0188434 0.000715543 -0.00228543
70 1 8.22364 5.33301 4.84686 -0.00404424 -0.00588369 0.00376705
71 2 8.24046 4.39283 5.35733 0.00262752 0.0120292 -0.0137652
72 2 7.67607 6.02273 5.32484 -0.0121249 0.00441151 0.00565551
73 1 10.4744 8.38519 7.29719 0.00385546 -1.23965e-06 -0.00451964
74 2 10.6825 7.77129 8.02738 0.0188924 -0.0111081 -0.0103161
75 2 10.9733 9.16843 7.52678 -0.0120854 0.012176 0.0269002
76 1 3.81278 4.05409 10.3877 -0.00400836 0.000880735 -0.00828978
77 2 3.01977 13.3959 10.5806 -0.00920386 -0.0124236 0.00752661
78 2 3.95201 5.83769 10.533 -0.000847033 0.00798814 0.00424501
79 1 4.09989 9.24288 9.41559 -3.27905e-06 -0.000967759 -0.0112143
80 2 3.56889 9.79134 9.99573 -0.0215261 -0.0126568 0.0306797
81 2 5.77326 9.93694 9.15514 0.00830773 -0.017373 -0.0365585
82 1 6.94842 7.85966 11.0757 -0.00122916 -0.00364261 0.000749203
83 2 6.11419 7.36204 10.9578 -0.0155319 0.00329236 -0.000405332
84 2 7.11272 8.59535 10.4081 0.00132465 -0.0121332 -0.00934852
85 1 11.2762 13.5443 11.9398 0.0106029 0.00487219 -0.00468105
86 2 10.9368 4.60582 11.733 0.0226772 -0.0191463 -0.00182426
87 2 4.4388 13.8754 11.1998 0.0173072 0.00975122 -0.00516376
88 1 7.57364 13.0234 6.20932 0.00068998 -0.00345192 -0.000326498
89 2 7.30092 12.0551 6.11712 -0.0169916 -0.0324474 0.0435306
90 2 7.12807 13.232 7.13837 -0.0450207 0.00814243 -0.0140023
91 1 6.43115 6.84227 6.62258 0.00423413 0.00242711 -0.00250767
92 2 4.98929 7.3563 6.06831 0.00577337 0.0044172 0.0117039
93 2 6.38475 6.28193 7.40755 0.0179007 -0.00767857 0.00881988
94 1 3.59099 13.4954 7.73659 -0.00198036 0.00219816 0.000937862
95 2 3.67219 13.537 8.7201 0.0348428 0.00261277 -0.00640719
96 2 3.75256 4.87932 6.17971 -0.0146576 0.00183612 0.000574638
ITEM: TIMESTEP
3
ITEM: NUMBER OF ATOMS
96
ITEM: BOX BOUNDS pp pp pp
2.9236100000000000e+00 1.2773600000000000e+01
4.0306300000000004e+00 1.3880599999999999e+01
2.1372399999999998e+00 1.1987200000000000e+01
ITEM: ATOMS id type x y z vx vy vz
1 1 5.11976 13.8 3.00448 0.00119546 -0.00491497 0.00041907
2 2 4.82133 12.847 3.18736 -0.00475938 -0.0202962 -0.0116805
3 2 11.2226 13.4309 3.07205 0.00129169 0.00919651 -0.00390662
4 1 3.00646 9.86507 11.7242 0.000316908 -0.00227857 0.00261256
5 2 11.9209 10.0891 11.5385 -0.0174561 0.00170552 0.0153427
6 2 2.94732 9.15822 2.58541 -0.024459 -0.020558 -0.0102713
7 1 12.7517 7.45469 3.04086 0.000979993 3.78143e-05 0.0034081
8 2 11.8939 7.06243 3.03256 -0.01509 0.00774291 -0.00578307
9 2 8.7612 8.68704 7.12366 0.0240846 -0.0353845 0.00736477
10 1 7.84551 9.11466 7.09341 0.00122287 -0.000150728 0.00510904
11 2 7.01973 7.78338 7.01571 -0.0524178 -0.0693405 -0.0245577
12 2 7.63311 9.49916 8.05583 -0.00775973 0.00260209 0.00427483
13 1 6.75101 9.54133 3.61955 0.00380517 -0.00149092 -0.00534308
14 2 6.07255 9.11147 4.23369 0.0165221 0.0101445 -0.00576929
15 2 6.92568 8.89267 2.95212 -0.00890034 -0.0034718 0.0214356
16 1 9.76926 7.32357 10.6618 0.00251009 0.00603517 0.000971968
17 2 9.98955 7.02304 11.5167 0.00316426 0.010264 0.0112592
18 2 8.79921 7.28295 10.6179 0.0101357 0.0148442 0.00290367
19 1 4.52041 6.6196 10.8076 0.00465329 -0.00067567 0.00258262
20 2 3.92596 6.9624 11.5351 0.00144937 0.0149582 -0.00249564
21 2 4.30721 8.41625 9.89747 0.0327475 -0.0145846 -0.0537704
22 1 10.1543 10.2178 11.1072 0.00215953 -0.00267468 -0.00180069
23 2 9.84556 10.0873 2.21927 0.0179836 -0.00374079 -0.0264431
24 2 10.1106 9.30985 10.6917 -0.000762797 0.0131793 0.0127528
25 1 4.31954 7.88436 5.45304 -0.000356595 0.000301078 0.00203869
26 2 3.52787 8.04009 6.06731 -0.0213548 0.00329009 -0.027428
27 2 3.75701 6.30315 5.50813 0.0202451 -0.00654963 -0.016573
28 1 10.123 6.89037 3.62469 -0.000786906 0.00469403 0.00120493
29 2 9.45566 6.24514 3.9865 0.019145 0.0219475 0.0190735
30 2 9.83782 7.82502 3.837 0.0134213 -0.00212127 -0.00663941
31 1 11.5193 10.8769 5.29775 0.00261031 -0.00229276 0.0041829
32 2 11.1106 11.7404 5.31852 0.0273617 0.00265579 0.0313156
33 2 12.203 10.9105 4.59298 -0.00645068 -0.00966001 -0.0105884
34 1 7.46056 4.55597 10.5787 -0.0122142 0.0020455 0.00399965
35 2 7.63915 13.4625 10.3185 -0.00997723 -0.0166086 -0.00731562
36 2 6.72952 4.56087 11.1781 0.00113927 -0.0178433 -0.0150695
37 1 8.54869 11.962 9.96601 -0.00111048 0.00619863 0.00145897
38 2 9.04621 12.5917 9.37338 0.0238297 -0.020206 0.00472715
39 2 9.27237 11.3999 10.3063 -0.0114775 -0.0151337 -0.0082281
40 1 11.0457 13.7866 4.90451 0.0028317 -0.00473835 -0.00162889
41 2 11.838 4.29207 5.33848 -0.00753137 0.0103854 0.00487062
42 2 10.4975 4.69097 4.68388 0.00814468 0.00525429 -0.00351907
43 1 3.46817 5.32241 5.39981 -0.00552573 -0.00149871 0.00808494
44 2 3.16596 7.40341 4.02478 -0.00651763 -0.000227423 0.0133601
45 2 4.86607 4.48542 3.77566 -0.0110033 -4.62902e-05 0.0119389
46 1 9.91637 13.2983 8.02816 0.00500817 0.000307718 0.00204024
47 2 9.4837 13.0175 7.22785 -0.00300475 0.00438265 -0.00774697
48 2 10.7676 12.8846 8.02795 0.00121974 0.0230471 -0.0164177
49 1 11.0219 5.90617 8.73687 -0.00543655 0.00258313 0.00277614
50 2 10.5818 5.08754 8.43367 -0.0207851 -0.000319322 -0.0170931
51 2 10.5439 6.26981 9.51706 0.0222589 -0.000470639 -0.0051716
52 1 9.44869 9.49229 3.85936 -0.000771546 0.00727237 0.00372179
53 2 10.1525 9.92891 4.44912 0.0100848 -0.0147519 0.0147902
54 2 8.58451 9.67648 4.22514 -0.00920896 0.0158749 -0.00917876
55 1 4.51691 11.1276 3.59753 -0.000221572 0.00262687 -0.00246705
56 2 5.40285 10.7306 3.46779 -0.00836073 0.00118712 -0.01197
57 2 3.89828 10.7028 2.93937 -0.0159944 0.0014259 0.00599744
58 1 6.75564 9.97508 9.42778 -0.000765705 -0.00139197 0.00159826
59 2 5.07783 10.5509 6.81001 -0.0129526 0.0226746 -0.0147387
60 2 7.05213 10.8902 9.70093 0.0111287 -0.000612662 0.00496952
61 1 6.16127 4.78042 8.25496 0.00181595 -0.00251948 -0.00150866
62 2 6.53242 4.88126 9.16193 -0.00366051 0.000601194 0.00452796
63 2 5.26503 4.46372 8.13879 0.0122115 -0.0126715 -0.00911145
64 1 4.78848 11.3679 6.4908 -0.00452463 0.00258212 -0.00569457
65 2 4.50147 11.2368 5.55023 -0.00596642 -0.0129572 0.0104314
66 2 3.68057 12.6014 7.33076 0.00782119 0.00989317 -0.00570998
67 1 11.9374 10.6203 8.02207 -0.00474269 0.0014873 0.00305624
68 2 11.8583 10.7385 7.01565 0.000851339 0.00625671 0.0129815
69 2 2.93194 10.173 8.21647 -0.020832 0.00191737 -0.00420849
70 1 8.22164 5.33006 4.84878 -0.00397214 -0.0058754 0.00388263
71 2 8.24116 4.40197 5.34946 0.000152206 0.0237191 -0.0172276
72 2 7.67038 6.02305 5.3278 -0.0104125 -0.0033604 0.00600044
73 1 10.4763 8.38512 7.29494 0.00374803 -0.000286759 -0.00445586
74 2 10.6917 7.76498 8.02202 0.0176508 -0.0140068 -0.0113361
75 2 10.9678 9.176 7.54031 -0.0104258 0.0177781 0.0271003
76 1 3.81086 4.05454 10.3836 -0.00368527 0.000860826 -0.00810407
77 2 3.01483 13.3898 10.5856 -0.00995485 -0.0115613 0.0124309
78 2 3.95287 5.84172 10.5343 0.00416913 0.00794522 0.0010949
79 1 4.09997 9.24236 9.40989 0.00025523 -0.0010778 -0.0115374
80 2 3.55783 9.78522 10.0118 -0.0218974 -0.0127437 0.0329158
81 2 5.7783 9.92872 9.13772 0.011821 -0.0153156 -0.0329818
82 1 6.9479 7.85786 11.0761 -0.000867175 -0.00356818 0.000905946
83 2 6.10645 7.36428 10.9569 -0.0151193 0.00575274 -0.00292766
84 2 7.11214 8.58834 10.4039 -0.0036024 -0.0158826 -0.00714316
85 1 11.2815 13.5468 11.9375 0.0105643 0.00502912 -0.0046361
86 2 10.9486 4.59471 11.7329 0.024135 -0.0242234 0.00117157
87 2 4.44623 13.88 11.1968 0.0120652 0.00857134 -0.00712427
88 1 7.57388 13.0215 6.20937 0.000195207 -0.00422299 0.000552221
89 2 7.29287 12.0407 6.1387 -0.0148095 -0.0241221 0.0425148
90 2 7.10677 13.2363 7.12857 -0.0398292 0.00933552 -0.0253433
91 1 6.43348 6.84381 6.62142 0.00506965 0.00363052 -0.00215353
92 2 4.99291 7.35948 6.0736 0.00801059 0.00854003 0.0093547
93 2 6.3934 6.27753 7.41214 0.0165082 -0.0101314 0.00936091
94 1 3.58999 13.4965 7.73697 -0.00201205 0.00240482 0.000569609
95 2 3.68959 13.5373 8.71626 0.0347675 -0.00129518 -0.0086543
96 2 3.74543 4.87959 6.18104 -0.0137159 -0.000823078 0.00506332
ITEM: TIMESTEP
4
ITEM: NUMBER OF ATOMS
96
ITEM: BOX BOUNDS pp pp pp
2.9236100000000000e+00 1.2773600000000000e+01
4.0306300000000004e+00 1.3880599999999999e+01
2.1372399999999998e+00 1.1987200000000000e+01
ITEM: ATOMS id type x y z vx vy vz
1 1 5.12035 13.7974 3.00466 0.00112958 -0.0051378 0.000343875
2 2 4.81929 12.8379 3.18183 -0.00330981 -0.0155007 -0.0104299
3 2 11.2232 13.4361 3.06918 0.0010652 0.0115432 -0.0074209
4 1 3.00657 9.86388 11.7255 9.47175e-05 -0.00245637 0.00259381
5 2 11.9115 10.0905 11.5459 -0.0196032 0.00389481 0.0143752
6 2 2.93519 9.14729 2.57986 -0.0237599 -0.0231242 -0.0119482
7 1 12.7523 7.45474 3.04267 0.00130145 0.000148731 0.00386237
8 2 11.8847 7.06579 3.02953 -0.0210134 0.00599995 -0.00626562
9 2 8.77307 8.67002 7.12775 0.0220581 -0.0319237 0.00907347
10 1 7.84606 9.11451 7.09605 0.001079 -0.000427034 0.00548549
11 2 6.99183 7.74659 7.00143 -0.0581117 -0.0761081 -0.0318509
12 2 7.62963 9.4996 8.05634 -0.0058453 -0.00104806 -0.00269705
13 1 6.75284 9.5406 3.617 0.00350501 -0.00139256 -0.00483843
14 2 6.08201 9.11676 4.22973 0.0208371 0.0108323 -0.00960842
15 2 6.92108 8.89023 2.96209 -0.00926061 -0.00678907 0.0177963
16 1 9.77051 7.32665 10.6621 0.00252163 0.00625845 0.000527817
17 2 9.99141 7.02767 11.5243 0.00411957 0.0084074 0.01857
18 2 8.80385 7.29031 10.6196 0.00818904 0.014599 0.00392507
19 1 4.52259 6.61924 10.809 0.00408027 -0.000733372 0.00265386
20 2 3.92779 6.97062 11.534 0.00586071 0.0177943 -0.00203577
21 2 4.32331 8.40924 9.87062 0.0315216 -0.0133154 -0.0534867
22 1 10.1554 10.2164 11.1063 0.00236572 -0.0030075 -0.00156899
23 2 9.85461 10.0854 2.20484 0.017817 -0.00388753 -0.0300669
24 2 10.1099 9.31709 10.6987 -0.00187447 0.0149095 0.0147046
25 1 4.31928 7.88448 5.4542 -0.000663084 0.000206118 0.00256232
26 2 3.51853 8.04191 6.05254 -0.0158577 0.0038511 -0.031349
27 2 3.76656 6.29844 5.49928 0.0180806 -0.0121375 -0.0186463
28 1 10.1226 6.89267 3.62528 -0.000690137 0.00449699 0.00112595
29 2 9.46505 6.25673 3.99618 0.0179572 0.0239181 0.0198008
30 2 9.84427 7.82339 3.83377 0.012201 -0.00374561 -0.00618803
31 1 11.5206 10.8757 5.29981 0.00262461 -0.00257186 0.00408124
32 2 11.1246 11.7425 5.3336 0.0286217 0.00582027 0.0289632
33 2 12.1995 10.9062 4.58823 -0.00790109 -0.00752877 -0.00831932
34 1 7.45448 4.557 10.5807 -0.0120591 0.00204547 0.00372192
35 2 7.63392 13.4547 10.3155 -0.0109077 -0.0140842 -0.00438825
36 2 6.72956 4.55149 11.1713 -0.00163549 -0.0195233 -0.0115908
37 1 8.5481 11.9651 9.96668 -0.00126335 0.00644254 0.0012386
38 2 9.05771 12.5818 9.3753 0.0221296 -0.0190606 0.00277497
39 2 9.26689 11.3914 10.303 -0.0106626 -0.0190675 -0.0047081
40 1 11.0471 13.7842 4.90367 0.00265683 -0.00498152 -0.00172489
41 2 11.8346 4.29776 5.34088 -0.00613763 0.0121592 0.00474816
42 2 10.5014 4.69396 4.68226 0.007571 0.00638579 -0.00299211
43 1 3.46543 5.32175 5.4038 -0.00543871 -0.00115729 0.00784332
44 2 3.16298 7.40346 4.03005 -0.00551236 0.000406647 0.00748216
45 2 4.86031 4.48483 3.78138 -0.011916 -0.00268027 0.0104581
46 1 9.91884 13.2985 8.02924 0.0048745 0.000499623 0.00225992
47 2 9.48208 13.0195 7.22336 -0.0033566 0.00372445 -0.00985057
48 2 10.7688 12.8954 8.01928 0.00405516 0.019928 -0.0182437
49 1 11.0192 5.90749 8.73823 -0.00530928 0.0026373 0.00260654
50 2 10.5713 5.08771 8.42547 -0.020992 0.00139766 -0.015456
51 2 10.5548 6.26932 9.51446 0.0206841 -0.00133859 -0.00464506
52 1 9.44843 9.49597 3.86123 -0.000261556 0.007411 0.0037589
53 2 10.1565 9.9212 4.45623 0.00567793 -0.0160209 0.0135811
54 2 8.57909 9.68463 4.22084 -0.0120359 0.0166719 -0.00809299
55 1 4.51682 11.1289 3.59637 -0.000167851 0.00295559 -0.00216864
56 2 5.39878 10.731 3.4616 -0.00781336 0.000294274 -0.0128099
57 2 3.89062 10.704 2.94233 -0.0146194 0.00333572 0.00590615
58 1 6.75524 9.97438 9.42852 -0.000828083 -0.00142824 0.00137139
59 2 5.07164 10.5609 6.80263 -0.011433 0.0163895 -0.014234
60 2 7.05722 10.8893 9.70304 0.00908205 -0.00305483 0.00338228
61 1 6.16227 4.77917 8.25409 0.00217629 -0.00246859 -0.00194976
62 2 6.53002 4.88123 9.16511 -0.00597067 -0.000732774 0.00809117
63 2 5.27042 4.45714 8.13517 0.00919972 -0.0136629 -0.00536842
64 1 4.78617 11.3693 6.48789 -0.00472466 0.0030083 -0.00590184
65 2 4.49902 11.2301 5.55634 -0.00408078 -0.0137717 0.0133512
66 2 3.68496 12.6065 7.32903 0.0097535 0.0103014 -0.0013433
67 1 11.935 10.6211 8.02353 -0.00484999 0.00155637 0.00283098
68 2 11.8594 10.7413 7.02343 0.00326285 0.00536426 0.017567
69 2 12.7712 10.1742 8.21394 -0.0214708 0.00243805 -0.00558834
70 1 8.21967 5.32714 4.85074 -0.00391416 -0.0057349 0.00394409
71 2 8.24061 4.41655 5.3401 -0.00233576 0.0333862 -0.0195801
72 2 7.66565 6.01937 5.33084 -0.00842151 -0.0113603 0.00605528
73 1 10.4781 8.38491 7.29273 0.00367505 -0.000529141 -0.00435123
74 2 10.7001 7.75728 8.01605 0.0162165 -0.0166246 -0.0127554
75 2 10.9629 9.18621 7.55388 -0.00942301 0.0224907 0.0270368
76 1 3.80909 4.05496 10.3796 -0.00339081 0.000799324 -0.0078458
77 2 3.00981 13.3844 10.593 -0.00957245 -0.00994243 0.0169547
78 2 3.95618 5.84563 10.5341 0.00887598 0.00750504 -0.00205432
79 1 4.10015 9.2418 9.40405 0.000431595 -0.00109384 -0.0117768
80 2 3.54699 9.77859 10.0286 -0.0206564 -0.0146646 0.0336996