ITEM: TIMESTEP
0
ITEM: NUMBER OF ATOMS
96
ITEM: BOX BOUNDS pp pp pp
2.9236100000000000e+00 1.2773600000000000e+01
4.0306300000000004e+00 1.3880599999999999e+01
2.1372399999999998e+00 1.1987200000000000e+01
ITEM: ATOMS id type x y z vx vy vz
1 1 7.33598 13.2166 3.42318 -0.000485474 0.00337703 0.000108491
2 2 6.61203 12.6069 3.49998 0.0269386 0.00823261 -0.000667654
3 2 9.78053 13.0782 11.3222 -0.0225075 0.00351578 -0.0149099
4 1 12.4031 9.86203 2.61907 -0.0012906 0.00454778 -0.00344751
5 2 11.4871 10.1401 2.35519 -0.0240635 0.0126353 -0.00509211
6 2 12.2726 9.08395 3.2612 -0.0195749 -0.00921266 0.0108214
7 1 12.1947 7.7409 4.24985 0.00152337 0.00299511 0.00153347
8 2 11.2755 7.52187 4.3147 -0.00235749 0.0234923 0.0383809
9 2 7.96964 8.74362 7.1326 0.00281287 -0.00605718 0.0221141
10 1 7.05372 8.57492 7.45565 -0.000343519 -0.00271968 0.00596949
11 2 6.62163 7.93043 6.86004 0.0179793 -0.016434 0.0107184
12 2 6.64227 9.71755 9.0298 0.00365455 -0.0104102 0.00903838
13 1 6.76921 8.7726 2.66095 0.00330803 0.00281717 0.00173832
14 2 6.49277 9.17217 11.7033 0.00347205 0.010732 -0.0187702
15 2 7.01541 7.85429 2.37197 -0.0241797 -0.00723633 0.0416133
16 1 9.57137 7.36045 11.0899 -0.00182577 0.00260825 -0.00125134
17 2 9.90277 7.21461 2.1483 -0.0324439 -0.0290744 0.0164377
18 2 8.7622 6.77401 10.9968 -0.00150127 -0.00813118 0.00440214
19 1 4.71878 5.89936 10.7713 0.00789857 0.00685148 0.00423564
20 2 4.15789 5.68428 11.543 0.0132808 0.0178311 0.00714457
21 2 11.0569 8.25222 9.98702 -0.0151908 -0.00730041 -0.0181922
22 1 9.84964 10.3035 11.8729 0.000880455 0.00636587 0.00218013
23 2 9.48743 10.2685 3.01927 -0.0078118 0.0106622 0.00802431
24 2 9.68494 9.38743 11.576 -0.0028382 0.0248693 0.00812747
25 1 3.52013 8.54342 6.42332 -0.000782998 -0.000613996 -0.00102747
26 2 3.73881 9.38439 6.0282 -0.0177241 -0.0110015 -0.0144125
27 2 3.2784 6.17343 3.60476 0.0146707 -0.0137446 0.0147116
28 1 9.57835 7.1235 4.20069 -0.000956438 0.00514243 -0.00251635
29 2 9.58002 6.4512 4.8246 0.029028 0.00891136 0.00906707
30 2 9.11467 7.91077 4.60201 0.00949946 -0.00973795 0.0198214
31 1 4.04573 11.089 5.71549 -0.0046362 -0.00280893 0.00316653
32 2 3.39804 11.9407 5.62414 0.00351062 -0.00155274 -0.0122356
33 2 4.6632 11.1468 4.96887 -0.0102382 -0.0410024 -0.00209239
34 1 7.69524 5.03324 8.89499 -0.00243933 -0.0036895 0.00329116
35 2 7.81722 4.15481 9.2894 -0.0029223 0.0222859 0.00494845
36 2 7.4176 5.57727 9.62609 -0.0207579 -0.0287716 -0.00713883
37 1 8.09921 11.8923 10.4182 -0.00298035 -0.00577351 0.0121208
38 2 9.21918 12.0616 9.07601 -0.0103883 -0.0131442 0.0135124
39 2 8.6323 11.3412 11.0148 0.0138659 -0.0208103 -0.011438
40 1 3.08857 13.378 5.25037 0.00144161 0.00709876 0.00576199
41 2 3.5465 4.61747 3.99564 0.0232963 -0.0286429 0.00659327
42 2 12.027 13.3839 5.09695 -0.00722639 -0.0174885 0.00520922
43 1 3.91415 5.41502 3.54162 -0.000761129 0.0028803 -0.00232172
44 2 12.488 7.91288 5.2617 0.0109574 0.0104359 0.0189286
45 2 8.09012 12.7266 3.67526 -0.0148307 -0.0181244 0.0167474
46 1 9.84538 12.3271 8.29597 0.00130438 -0.0086779 0.00563655
47 2 8.53361 12.7154 7.33534 -0.00820996 -0.00708833 -0.0186038
48 2 10.176 11.5418 7.89244 -0.00994845 0.0206947 -0.00532398
49 1 10.2329 6.69369 8.11225 -0.00409943 -0.00494878 -0.00276497
50 2 9.57093 5.9962 7.88669 0.0267537 0.00289585 -0.0124445
51 2 10.2117 6.73676 9.10665 -0.00212883 -0.017274 -0.00454629
52 1 9.03163 10.9858 4.49206 -0.00181951 -0.00305715 -0.00122822
53 2 9.08841 10.2195 5.07931 0.00763937 -0.0141739 -0.0169836
54 2 8.46724 11.5836 5.04773 -0.0131412 -0.0277367 -0.0317708
55 1 5.08679 10.9919 3.30157 -0.00219672 0.00219878 -0.000335076
56 2 5.74781 10.2713 3.30442 0.0132959 -0.0148337 -0.0237988
57 2 4.28269 10.6151 2.87689 0.0133319 0.00135824 0.0118395
58 1 6.16959 10.0742 9.81416 -0.00394824 0.00467936 -0.00738626
59 2 4.54729 13.7471 7.87433 -0.0209567 0.0283545 0.0103586
60 2 7.39379 11.2364 10.1334 -0.0174654 -0.0368006 0.0371677
61 1 7.89471 5.51937 6.29936 -0.000959939 0.00050603 -0.000135673
62 2 7.91425 5.70132 7.29345 0.0142867 0.00146688 -0.0159181
63 2 6.88526 5.56284 6.13972 0.0370226 0.0138975 0.0182481
64 1 5.32308 12.3315 7.92896 0.000632414 -0.000857101 0.00440517
65 2 4.98538 11.8682 7.09532 0.0193607 -0.0130044 0.0274957
66 2 3.46869 4.15303 6.42531 -0.00518406 -0.0214387 -0.016585
67 1 11.3819 10.0012 7.67906 -0.0010654 0.00360754 -0.0074351
68 2 12.0506 9.81215 7.03514 -0.00330435 0.000442723 -0.0177167
69 2 11.6992 9.57479 8.55187 0.010426 0.0221458 -0.0150226
70 1 10.4577 4.16514 4.79431 0.00347687 0.00293858 -0.000944022
71 2 10.2086 13.8349 3.86349 0.0139698 -0.00221627 0.00577248
72 2 9.79728 4.73006 5.18302 -0.00100427 -0.0150979 -0.0248364
73 1 9.49188 8.73966 6.30087 0.00164831 -0.00761598 -0.00226511
74 2 9.74381 7.89411 6.84763 0.0112964 0.0161226 -0.0194785
75 2 9.99958 9.5202 6.76247 -0.000206482 -0.0115521 -0.0230463
76 1 12.2864 5.0528 9.74646 -0.00422101 -0.0041394 -0.00690134
77 2 11.8922 5.9224 9.54773 0.0155617 0.00457301 0.0288907
78 2 4.32248 5.47145 10.0393 -0.0176368 -0.00351211 -0.00619565
79 1 11.973 8.62895 9.95867 0.00457402 0.00110079 -0.00415771
80 2 12.1551 8.9828 10.8077 -0.0120334 0.0157638 0.0035173
81 2 5.55622 10.6001 9.37703 -0.0030853 -0.00517829 -0.0147333
82 1 7.36342 5.84111 11.6224 0.00120881 -0.0054073 -0.00184417
83 2 7.29884 5.10135 2.43375 0.00309963 -0.0279151 0.00682199
84 2 6.47365 5.8471 11.1665 0.00339718 -0.00907753 0.0126519
85 1 10.2029 4.0357 11.6432 -0.00728538 0.00800312 -0.0037135
86 2 9.40491 4.63984 11.654 0.0167812 -0.0167923 0.00801135
87 2 11.6155 4.59199 10.2891 0.00516066 0.00242021 -0.0181179
88 1 7.73007 12.639 6.73548 -5.46299e-05 -0.00354648 -0.00181596
89 2 6.23041 12.5672 7.71602 0.00229112 -0.0004243 -0.00114418
90 2 7.60809 13.5944 6.46714 -0.0176515 -0.00604413 0.0037384
91 1 5.32814 6.59606 5.83434 0.00443074 0.00727685 -0.00363621
92 2 4.28735 7.86935 6.25762 0.0228536 0.00823066 -0.0102764
93 2 4.83544 6.12804 6.45731 -0.000971728 -0.0131492 0.0140665
94 1 3.84547 4.66677 7.56683 0.00459907 -0.000319698 0.0017168
95 2 3.09222 4.42571 8.25771 0.045683 -0.034246 -0.00657473
96 2 4.90903 6.40643 4.95604 -0.00275218 -0.0269984 -0.0150804
ITEM: TIMESTEP
1
ITEM: NUMBER OF ATOMS
96
ITEM: BOX BOUNDS pp pp pp
2.9236100000000000e+00 1.2773600000000000e+01
4.0306300000000004e+00 1.3880599999999999e+01
2.1372399999999998e+00 1.1987200000000000e+01
ITEM: ATOMS id type x y z vx vy vz
1 1 7.3357 13.2184 3.42322 -0.000579854 0.00375059 3.83471e-05
2 2 6.62526 12.6106 3.49954 0.0248954 0.0060005 -0.00110184
3 2 9.76958 13.0803 11.3149 -0.021 0.0051892 -0.0140817
4 1 12.4025 9.86427 2.61735 -0.00122903 0.00440258 -0.00339939
5 2 11.4747 10.1469 2.35253 -0.0246592 0.0144517 -0.00525341
6 2 12.2632 9.07953 3.26659 -0.0180054 -0.00792066 0.0102824
7 1 12.1956 7.74239 4.25066 0.00201841 0.00295669 0.0017436
8 2 11.2722 7.5332 4.33366 -0.0105482 0.0219012 0.0372335
9 2 7.97102 8.74029 7.14313 0.00269623 -0.00722673 0.0200504
10 1 7.0535 8.57356 7.45865 -0.000512725 -0.00272988 0.0060235
11 2 6.6312 7.92262 6.86566 0.0201871 -0.0148943 0.0116855
12 2 6.64407 9.71171 9.03466 0.00356482 -0.0129334 0.0101658
13 1 6.77089 8.77392 2.66183 0.00338929 0.0025046 0.00176442
14 2 6.49434 9.17779 11.6932 0.00317342 0.0110889 -0.0210233
15 2 7.00302 7.85177 2.39324 -0.0253051 -0.00308249 0.043056
16 1 9.57046 7.36174 11.0893 -0.0018201 0.00251727 -0.00128894
17 2 9.88583 7.19997 2.1561 -0.0350502 -0.0291028 0.0143893
18 2 8.76246 6.77068 10.9995 0.00248311 -0.00505276 0.00617089
19 1 4.72281 5.90284 10.7735 0.00818704 0.00702366 0.00441413
20 2 4.16471 5.6931 11.5468 0.0139736 0.0174334 0.00819752
21 2 11.0499 8.24874 9.97846 -0.0119839 -0.00627693 -0.0160027
22 1 9.85001 10.3066 11.8741 0.000611109 0.00618556 0.00267696
23 2 9.48425 10.2745 3.0212 -0.0049189 0.0133889 -0.000240347
24 2 9.68356 9.39989 11.5798 -0.00280276 0.0242215 0.00678874
25 1 3.51974 8.54295 6.42287 -0.000756327 -0.00127202 -0.000769637
26 2 3.73089 9.38022 6.02017 -0.0139896 -0.00539993 -0.0177379
27 2 3.28587 6.1658 3.61256 0.0145992 -0.0162819 0.0165873
28 1 9.57786 7.12619 4.1993 -0.000981927 0.00557742 -0.00300666
29 2 9.59392 6.45473 4.83066 0.0267108 0.00533555 0.0148468
30 2 9.12004 7.90474 4.61221 0.0117553 -0.0139846 0.02092
31 1 4.0434 11.0876 5.71718 -0.00467731 -0.00283049 0.00357611
32 2 3.39993 11.9397 5.61783 0.00425982 -0.00282455 -0.0129905
33 2 4.65842 11.1263 4.96669 -0.00891597 -0.0408483 -0.00661334
34 1 7.69404 5.03136 8.89664 -0.00237447 -0.00380247 0.00326949
35 2 7.81574 4.16616 9.29183 -0.00279339 0.0221242 0.00500679
36 2 7.40719 5.56292 9.62287 -0.0211796 -0.027953 -0.00526706
37 1 8.09773 11.8894 10.4242 -0.00296032 -0.00590911 0.0118865
38 2 9.2148 12.0551 9.08205 -0.00696502 -0.0128922 0.0103563
39 2 8.64023 11.3309 11.0098 0.0178377 -0.0198702 -0.00870525
40 1 3.08953 13.3817 5.25342 0.00236926 0.00760561 0.00642385
41 2 3.5577 4.60305 3.99951 0.021641 -0.0283453 0.00860212
42 2 12.022 13.3753 5.10014 -0.0122927 -0.0169773 0.00766967
43 1 3.91378 5.41654 3.54042 -0.000687514 0.00311586 -0.00246874
44 2 12.4934 7.91829 5.27005 0.0107974 0.0111205 0.014058
45 2 8.08332 12.7168 3.68383 -0.0122504 -0.0207717 0.017437
46 1 9.84594 12.3228 8.29888 0.00091319 -0.0083733 0.00606126
47 2 8.52996 12.7111 7.3264 -0.0060414 -0.0101296 -0.016891
48 2 10.1715 11.5511 7.88977 -0.00778704 0.0156353 -0.00566959
49 1 10.2308 6.69117 8.11091 -0.00423857 -0.00507123 -0.00258754
50 2 9.58507 5.99852 7.88121 0.0291133 0.00570578 -0.0096602
51 2 10.2102 6.72806 9.10286 -0.00401029 -0.0175263 -0.0104083
52 1 9.03066 10.9843 4.49152 -0.00201249 -0.00297306 -0.000978522
53 2 9.09248 10.2122 5.07059 0.00851269 -0.0150743 -0.0177469
54 2 8.46121 11.5695 5.03139 -0.0115198 -0.0280247 -0.0328772
55 1 5.08571 10.993 3.3014 -0.00203741 0.00219953 -0.000334902
56 2 5.7542 10.2638 3.29232 0.011838 -0.0144914 -0.02447
57 2 4.28946 10.6158 2.88309 0.01311 0.00132141 0.0126589
58 1 6.16772 10.0765 9.81047 -0.00353249 0.00441592 -0.0073356
59 2 4.53746 13.761 7.87873 -0.0174077 0.0271282 0.0070189
60 2 7.38437 11.2185 10.1516 -0.0198494 -0.034227 0.0358242
61 1 7.89409 5.51961 6.29936 -0.00143807 0.000440444 0.000103847
62 2 7.92187 5.70176 7.28431 0.0163407 0.000443342 -0.0198654
63 2 6.90586 5.57007 6.14832 0.0436479 0.0150101 0.0157287
64 1 5.32328 12.331 7.93115 0.000216858 -0.00094059 0.0043652
65 2 4.99476 11.8618 7.10949 0.0178659 -0.0128263 0.0287788
66 2 3.46451 4.14085 6.4149 -0.0116541 -0.0273508 -0.0254566
67 1 11.3813 10.003 7.67541 -0.00132039 0.00378636 -0.00719808
68 2 12.0497 9.81211 7.02592 -0.00040013 -0.000497363 -0.0189149
69 2 11.7043 9.58591 8.54376 0.00993501 0.0221643 -0.0171432
70 1 10.4594 4.16661 4.79381 0.00335428 0.00290617 -0.00105951
71 2 10.2155 13.8343 3.86683 0.0134299 -0.000252153 0.00716626
72 2 9.79616 4.72245 5.17028 -0.00396065 -0.0149086 -0.0257299
73 1 9.49275 8.73584 6.29985 0.00181425 -0.00763735 -0.001856
74 2 9.74942 7.9039 6.83722 0.0112792 0.0220817 -0.0216529
75 2 9.99912 9.51258 6.75056 -0.00139648 -0.0182907 -0.0242938
76 1 12.2843 5.05072 9.74301 -0.00429616 -0.00418225 -0.00690741
77 2 11.9 5.92415 9.56217 0.01566 0.0027134 0.0287752
78 2 4.31273 5.46907 10.035 -0.0208892 -0.00544303 -0.010007
79 1 11.9752 8.62943 9.95647 0.00431769 0.000822798 -0.00460615
80 2 12.1493 8.99144 10.811 -0.0112825 0.0185281 0.00908429
81 2 5.553 10.5991 9.36911 -0.00967875 0.000951627 -0.0170395
82 1 7.36398 5.83836 11.6215 0.00105137 -0.00563856 -0.00171891
83 2 7.30046 5.08787 2.43663 0.00348748 -0.0254403 0.00426139
84 2 6.47558 5.84259 11.1734 0.00407262 -0.00887536 0.0147411
85 1 10.1991 4.03974 11.6413 -0.00771169 0.00808823 -0.00376425
86 2 9.41476 4.63053 11.658 0.0215564 -0.019534 0.00807037
87 2 11.6181 4.59351 10.2799 0.00478687 0.00337607 -0.0181753
88 1 7.73003 12.6373 6.73454 -0.000123274 -0.00327939 -0.00194438
89 2 6.23323 12.5674 7.71512 0.00871655 0.00115646 -0.00229345
90 2 7.59907 13.5913 6.46862 -0.0183469 -0.00636839 0.00223851
91 1 5.33042 6.5998 5.83243 0.00461747 0.00763717 -0.00398788
92 2 4.29854 7.87453 6.25251 0.0217802 0.0123231 -0.0101521
93 2 4.83379 6.12009 6.46539 -0.00480762 -0.0179062 0.0173484
94 1 3.84777 4.66651 7.56772 0.00459911 -0.000686798 0.00185461
95 2 3.11465 4.40968 8.2538 0.042882 -0.0296298 -0.00874618
96 2 4.90766 6.3925 4.94886 -0.00234801 -0.028489 -0.012945
ITEM: TIMESTEP
2
ITEM: NUMBER OF ATOMS
96
ITEM: BOX BOUNDS pp pp pp
2.9236100000000000e+00 1.2773600000000000e+01
4.0306300000000004e+00 1.3880599999999999e+01
2.1372399999999998e+00 1.1987200000000000e+01
ITEM: ATOMS id type x y z vx vy vz
1 1 7.3354 13.2204 3.42322 -0.000552414 0.00413375 -1.63284e-05
2 2 6.63693 12.6129 3.49888 0.0207823 0.0029032 -0.00157567
3 2 9.75953 13.0834 11.3081 -0.0189923 0.00740166 -0.0129655
4 1 12.4019 9.86643 2.61567 -0.00129438 0.00420394 -0.00332761
5 2 11.4624 10.1546 2.34994 -0.0233815 0.0156702 -0.00484242
6 2 12.2546 9.07603 3.27148 -0.016204 -0.00564457 0.00886502
7 1 12.1967 7.74386 4.25159 0.00243789 0.00292713 0.0019999
8 2 11.265 7.54377 4.35193 -0.0179095 0.0205021 0.0356008
9 2 7.97234 8.73639 7.15265 0.00252546 -0.00834155 0.0181007
10 1 7.05321 8.57219 7.46167 -0.000670401 -0.00272965 0.00608827
11 2 6.64182 7.91554 6.87173 0.0220926 -0.013589 0.0124414
12 2 6.64583 9.70462 9.03997 0.00345315 -0.0153984 0.0108522
13 1 6.7726 8.7751 2.66271 0.00341695 0.00231098 0.00173945
14 2 6.49594 9.18326 11.6823 0.00355215 0.0101322 -0.0217727
15 2 6.9901 7.85121 2.41503 -0.0262716 0.000470038 0.0436848
16 1 9.56955 7.36297 11.0886 -0.00183116 0.00236962 -0.00123705
17 2 9.86772 7.18551 2.16269 -0.0370219 -0.0283396 0.0116989
18 2 8.76468 6.76896 11.003 0.00619257 -0.00177346 0.00703818
19 1 4.72697 5.90638 10.7757 0.00839679 0.00711838 0.00446005
20 2 4.17186 5.70171 11.5512 0.0146435 0.0170145 0.00920934
21 2 11.0449 8.24594 9.97102 -0.0073882 -0.0046489 -0.0137316
22 1 9.85025 10.3097 11.8756 0.000366129 0.00609739 0.00316715
23 2 9.48251 10.2819 3.01903 -0.00215668 0.0159888 -0.00809686
24 2 9.68214 9.41165 11.5828 -0.00300103 0.0220567 0.00498156
25 1 3.51937 8.54215 6.42255 -0.000680488 -0.00193474 -0.000514577
26 2 3.72482 9.37899 6.01046 -0.0104038 0.000489972 -0.0210111
27 2 3.293 6.15715 3.62135 0.0132969 -0.0177576 0.0186448
28 1 9.57737 7.12908 4.19768 -0.000986395 0.00592115 -0.00343993
29 2 9.60673 6.45654 4.83945 0.024635 0.00221303 0.0197456
30 2 9.12643 7.89679 4.62293 0.013501 -0.0173069 0.0218955
31 1 4.04105 11.0862 5.71907 -0.00472077 -0.00287012 0.00396859
32 2 3.4023 11.9379 5.61115 0.00540367 -0.00460857 -0.0136951
33 2 4.65428 11.106 4.96226 -0.00780717 -0.0404981 -0.0109347
34 1 7.69287 5.02944 8.89826 -0.0023022 -0.00387286 0.00316535
35 2 7.81443 4.17693 9.29441 -0.00227982 0.019937 0.00550634
36 2 7.39642 5.54932 9.62082 -0.0221619 -0.0258629 -0.00253525
37 1 8.09625 11.8864 10.4301 -0.00298493 -0.0061673 0.0116492
38 2 9.21221 12.0487 9.08637 -0.00328314 -0.0125653 0.00675525
39 2 8.65014 11.3213 11.0061 0.0216047 -0.0181964 -0.00632972
40 1 3.09094 13.3856 5.25679 0.00323854 0.00810823 0.00703431
41 2 3.56814 4.58912 4.00424 0.020279 -0.0265936 0.00999132
42 2 12.0147 13.3669 5.10462 -0.0165199 -0.0162689 0.0104174
43 1 3.91346 5.41814 3.53915 -0.000555078 0.00319451 -0.00258107
44 2 12.4988 7.924 5.27576 0.01072 0.011631 0.00847294
45 2 8.07787 12.7058 3.6927 -0.00957465 -0.0225402 0.0178491
46 1 9.84629 12.3187 8.30203 0.000467523 -0.00799402 0.00655346
47 2 8.52757 12.7053 7.31845 -0.00325201 -0.0128256 -0.014706
48 2 10.1682 11.5574 7.88677 -0.00517558 0.00927538 -0.00654623
49 1 10.2287 6.68862 8.10966 -0.00428017 -0.00510577 -0.00241126
50 2 9.60004 6.00191 7.87703 0.0300009 0.00697942 -0.00733759
51 2 10.2077 6.71923 9.09624 -0.00587225 -0.0177953 -0.0156146
52 1 9.02962 10.9828 4.49108 -0.00211666 -0.00296355 -0.000823755
53 2 9.09692 10.2044 5.06156 0.00913649 -0.0157579 -0.018207
54 2 8.45572 11.5556 5.01485 -0.0110318 -0.0273934 -0.0325579
55 1 5.08475 10.9941 3.30124 -0.00174988 0.0021354 -0.00030922
56 2 5.75965 10.2568 3.27995 0.00957422 -0.0128933 -0.0248938
57 2 4.2958 10.6164 2.88955 0.0116068 0.000989564 0.0128464
58 1 6.16606 10.0786 9.80682 -0.00314093 0.00417744 -0.00725128
59 2 4.52988 13.7742 7.88135 -0.0120572 0.0253836 0.00323836
60 2 7.37394 11.2022 10.1692 -0.0214345 -0.0304108 0.0345837
61 1 7.89327 5.51981 6.29946 -0.00169255 0.000360442 0.000282278
62 2 7.93059 5.70176 7.27358 0.0186887 -0.00023453 -0.0221165
63 2 6.92891 5.57785 6.15545 0.0465178 0.0161565 0.0123679
64 1 5.3233 12.3306 7.93333 -0.00010035 -0.00100377 0.00436602
65 2 5.00325 11.8554 7.1241 0.0158333 -0.0131026 0.0292014
66 2 3.45704 4.12568 6.39985 -0.018334 -0.0333761 -0.0350679
67 1 11.3806 10.005 7.67186 -0.00153741 0.00397031 -0.00702181
68 2 12.0502 9.81165 7.01623 0.00191753 -0.00119867 -0.019531
69 2 11.7091 9.59695 8.53473 0.00960569 0.0218326 -0.0186561
70 1 10.4611 4.16805 4.79325 0.00329564 0.00284108 -0.00116239
71 2 10.222 13.8346 3.87066 0.0127898 0.00140476 0.00770042
72 2 9.79332 4.71515 5.15729 -0.00780645 -0.0139075 -0.0258861
73 1 9.49369 8.73202 6.29901 0.00191571 -0.0076102 -0.00156572
74 2 9.75509 7.91619 6.82598 0.0116144 0.0259045 -0.022736
75 2 9.99818 9.50191 6.73818 -0.00199181 -0.0234848 -0.0249331
76 1 12.2821 5.04862 9.73955 -0.00430366 -0.00421478 -0.00692132
77 2 11.9079 5.92511 9.57651 0.0155453 0.00146696 0.0284781
78 2 4.30159 5.46601 10.0293 -0.0231292 -0.00619381 -0.0117245
79 1 11.9773 8.62977 9.95406 0.00399819 0.000554771 -0.00496711
80 2 12.1438 9.00133 10.8168 -0.010896 0.0206936 0.0133823
81 2 5.54654 10.6011 9.35999 -0.0156874 0.00670851 -0.0193419
82 1 7.36447 5.83547 11.6207 0.0009161 -0.00594104 -0.00149952
83 2 7.30233 5.07591 2.43801 0.00410432 -0.0219446 0.000922096
84 2 6.47772 5.83822 11.1812 0.00417241 -0.00850142 0.0163529
85 1 10.1952 4.04379 11.6394 -0.00802395 0.00801202 -0.00383917
86 2 9.42647 4.62031 11.6621 0.0239734 -0.0202878 0.00821755
87 2 11.6203 4.59537 10.2709 0.00366686 0.00376011 -0.0175137
88 1 7.72995 12.6357 6.73354 -0.000250334 -0.00303787 -0.00210646
89 2 6.23913 12.5684 7.71373 0.014391 0.00256489 -0.00307734
90 2 7.58974 13.588 6.46938 -0.0187942 -0.00671519 0.000876772
91 1 5.33276 6.6037 5.83035 0.00462926 0.00788781 -0.00429801
92 2 4.30913 7.88167 6.24747 0.02053 0.0160243 -0.00998292
93 2 4.83063 6.11013 6.47466 -0.00693594 -0.0210255 0.0186947
94 1 3.85007 4.66608 7.56868 0.00462842 -0.00100264 0.00202078
95 2 3.1351 4.39608 8.24896 0.0379435 -0.024598 -0.0102854
96 2 4.90668 6.37794 4.9431 -0.00124187 -0.0294552 -0.00947313
ITEM: TIMESTEP
3
ITEM: NUMBER OF ATOMS
96
ITEM: BOX BOUNDS pp pp pp
2.9236100000000000e+00 1.2773600000000000e+01
4.0306300000000004e+00 1.3880599999999999e+01
2.1372399999999998e+00 1.1987200000000000e+01
ITEM: ATOMS id type x y z vx vy vz
1 1 7.33515 13.2225 3.4232 -0.000407513 0.00449569 -4.55547e-05
2 2 6.64604 12.6135 3.49796 0.0149257 -0.0007829 -0.00214242
3 2 9.75059 13.0877 11.3019 -0.0166115 0.00985809 -0.0116765
4 1 12.4012 9.86848 2.61403 -0.00147654 0.00396153 -0.00324123
5 2 11.4513 10.1626 2.34769 -0.0202751 0.0162885 -0.00385842
6 2 12.247 9.07389 3.27546 -0.0142133 -0.00257483 0.006711
7 1 12.198 7.74531 4.25266 0.00274331 0.00290128 0.00229094
8 2 11.2543 7.5537 4.36926 -0.0238603 0.0193939 0.0334616
9 2 7.97355 8.73195 7.16123 0.00228845 -0.00935648 0.0163276
10 1 7.05283 8.57083 7.46474 -0.00081016 -0.00271313 0.00616715
11 2 6.65329 7.90903 6.8781 0.0235725 -0.0126402 0.0129126
12 2 6.64752 9.69631 9.04551 0.0032101 -0.0177176 0.011138
13 1 6.77431 8.77623 2.66357 0.00339251 0.00224703 0.00166652
14 2 6.4979 9.18792 11.6714 0.00454577 0.00793919 -0.0210528
15 2 6.97675 7.85224 2.43692 -0.0270403 0.00317897 0.0434968
16 1 9.56863 7.36411 11.088 -0.00184671 0.00217967 -0.00110213
17 2 9.84881 7.17163 2.1678 -0.0381935 -0.0267719 0.00859733
18 2 8.76865 6.7689 11.0066 0.00929727 0.00149237 0.00686269
19 1 4.73121 5.90996 10.7779 0.00851733 0.00713038 0.00437073
20 2 4.17935 5.71011 11.556 0.015325 0.0165864 0.0101174
21 2 11.0425 8.24409 9.96473 -0.00174044 -0.00256427 -0.0114104
22 1 9.85038 10.3127 11.8773 0.000155096 0.0060992 0.00360871
23 2 9.48209 10.2905 3.0131 0.000262827 0.0183787 -0.0150053
24 2 9.68056 9.42195 11.5848 -0.00343626 0.0184791 0.00277703
25 1 3.51906 8.54102 6.42236 -0.000551142 -0.0025576 -0.000282304
26 2 3.72049 9.38071 5.99916 -0.00713381 0.00615844 -0.0239329
27 2 3.29917 6.14804 3.63121 0.0107837 -0.0180868 0.0208829
28 1 9.57688 7.13211 4.19586 -0.000957586 0.00614113 -0.00379093
29 2 9.61856 6.45694 4.8504 0.0227818 -0.000148707 0.0233458
30 2 9.13354 7.88743 4.63411 0.0146122 -0.0194937 0.0227604
31 1 4.03868 11.0847 5.72115 -0.00474975 -0.00292955 0.00432636
32 2 3.40534 11.9351 5.60413 0.00693199 -0.00705487 -0.0143063
33 2 4.65062 11.0858 4.95575 -0.00711554 -0.0399637 -0.0148041
34 1 7.69173 5.02749 8.89981 -0.00222696 -0.00389396 0.00299535
35 2 7.81347 4.1861 9.29734 -0.00136001 0.0157849 0.00641199
36 2 7.38502 5.53706 9.62033 -0.0236568 -0.0226593 0.000828152
37 1 8.09475 11.8832 10.4359 -0.00304212 -0.00654395 0.0114212
38 2 9.21151 12.0425 9.0888 0.00047548 -0.0122271 0.00295252
39 2 8.66183 11.3127 11.0035 0.0248205 -0.0157521 -0.0045488
40 1 3.09277 13.3898 5.26046 0.00402593 0.00860431 0.00758261
41 2 3.57798 4.57645 4.0095 0.0192597 -0.0233557 0.0106635
42 2 12.0055 13.359 5.11056 -0.0196816 -0.0153281 0.0134895
43 1 3.91323 5.41973 3.53784 -0.000366296 0.00311289 -0.00265892
44 2 12.5041 7.92992 5.27852 0.0106791 0.0119302 0.00238689
45 2 8.07375 12.6942 3.70168 -0.00706241 -0.0232233 0.0178757
46 1 9.84641 12.3148 8.30544 -6.67933e-06 -0.00756717 0.00708138
47 2 8.52671 12.6982 7.31169 -2.92525e-05 -0.0150943 -0.0122116
48 2 10.1663 11.5603 7.88322 -0.00230159 0.00211294 -0.00774091
49 1 10.2265 6.68607 8.1085 -0.00421582 -0.00504221 -0.00225196
50 2 9.61507 6.0055 7.87387 0.0292629 0.00648355 -0.00563588
51 2 10.2043 6.71027 9.08724 -0.00767199 -0.0180403 -0.0197439
52 1 9.02854 10.9813 4.4907 -0.00212871 -0.00302742 -0.000756981
53 2 9.10161 10.1964 5.05238 0.00949465 -0.0161773 -0.0184121
54 2 8.45018 11.5422 4.99883 -0.0117325 -0.0258801 -0.0308238
55 1 5.08396 10.9951 3.30109 -0.00134886 0.0020172 -0.00025981
56 2 5.76378 10.2509 3.26743 0.00668437 -0.0102263 -0.0250392
57 2 4.30107 10.6168 2.89594 0.00887493 0.000393006 0.0124402
58 1 6.16458 10.0807 9.80322 -0.00280411 0.00399048 -0.00715841
59 2 4.5254 13.7864 7.88197 -0.00523791 0.0232862 -0.000882101
60 2 7.36293 11.1881 10.1862 -0.0221392 -0.0254858 0.0335055
61 1 7.89239 5.51997 6.29964 -0.00169158 0.000255376 0.000381057
62 2 7.94056 5.70152 7.2622 0.0212922 -0.000525123 -0.0224184
63 2 6.95238 5.58622 6.16069 0.0451836 0.0174299 0.0082103
64 1 5.32318 12.33 7.93551 -0.000292879 -0.00103939 0.00440408
65 2 5.01059 11.8487 7.1387 0.013347 -0.0138424 0.0287632
66 2 3.44618 4.10748 6.37983 -0.0251378 -0.0393826 -0.0452634
67 1 11.3798 10.007 7.66839 -0.00170567 0.00415831 -0.00691681
68 2 12.0517 9.81091 7.00639 0.00350722 -0.00161668 -0.0194537
69 2 11.7139 9.60774 8.5251 0.00945282 0.0211517 -0.0194913
70 1 10.4627 4.16945 4.79265 0.00328882 0.00275587 -0.00124213
71 2 10.2283 13.8357 3.87453 0.012088 0.00270609 0.0073045
72 2 9.78835 4.70854 5.1444 -0.0123594 -0.0122637 -0.0253844
73 1 9.49467 8.72823 6.29829 0.00193675 -0.00753375 -0.00141014
74 2 9.76103 7.9298 6.81449 0.0123903 0.0271823 -0.0225814
75 2 9.99712 9.48909 6.72563 -0.00185008 -0.0267123 -0.0249009
76 1 12.28 5.0465 9.73609 -0.00424498 -0.0042388 -0.00694461
77 2 11.9156 5.92562 9.59065 0.0152162 0.00089423 0.0280169
78 2 4.2896 5.46288 10.0233 -0.0242419 -0.00569545 -0.0112295
79 1 11.9792 8.62999 9.9515 0.00363775 0.000315906 -0.0052148
80 2 12.1384 9.01213 10.8244 -0.010863 0.0221029 0.0160661
81 2 5.53731 10.6058 9.34977 -0.0204894 0.0116018 -0.0213083
82 1 7.3649 5.83242 11.62 0.000807828 -0.00629944 -0.0011999
83 2 7.30456 5.06592 2.43756 0.00493958 -0.0177271 -0.002909
84 2 6.47975 5.83409 11.1898 0.00359648 -0.00793719 0.0174312
85 1 10.1911 4.04775 11.6375 -0.00818675 0.00777155 -0.00393559
86 2 9.43873 4.61025 11.6662 0.0236015 -0.0187096 0.00851839
87 2 11.6217 4.59727 10.2624 0.00181658 0.00355419 -0.0161497
88 1 7.72978 12.6343 6.73244 -0.000433707 -0.00282605 -0.0022937
89 2 6.24762 12.57 7.71204 0.0188914 0.00364906 -0.00349337
90 2 7.58027 13.5846 6.4695 -0.0188972 -0.00708789 -0.000276031
91 1 5.33505 6.60769 5.82813 0.00446482 0.00801733 -0.00454813
92 2 4.31907 7.89055 6.24252 0.0191731 0.0191906 -0.00975768
93 2 4.82686 6.09906 6.48409 -0.00728143 -0.0223534 0.0180367
94 1 3.85239 4.66551 7.56974 0.00468241 -0.0012688 0.00221265
95 2 3.15259 4.38508 8.24351 0.0312479 -0.0192973 -0.0112177
96 2 4.90642 6.36304 4.93938 0.000506568 -0.0298515 -0.00489011
ITEM: TIMESTEP
4
ITEM: NUMBER OF ATOMS
96
ITEM: BOX BOUNDS pp pp pp
2.9236100000000000e+00 1.2773600000000000e+01
4.0306300000000004e+00 1.3880599999999999e+01
2.1372399999999998e+00 1.1987200000000000e+01
ITEM: ATOMS id type x y z vx vy vz
1 1 7.33499 13.2248 3.42317 -0.000163415 0.00479996 -3.98862e-05
2 2 6.65185 12.6121 3.49674 0.00790958 -0.004643 -0.00285405
3 2 9.74292 13.0932 11.2964 -0.0139924 0.0121712 -0.0103648
4 1 12.4004 9.87039 2.61243 -0.00175687 0.0036867 -0.00314882
5 2 11.4422 10.1708 2.34608 -0.0155245 0.0163626 -0.0023555
6 2 12.2404 9.07345 3.27819 -0.0120762 0.00104697 0.00400602
7 1 12.1995 7.74676 4.25388 0.0029038 0.00287385 0.00260082
8 2 11.2411 7.56317 4.3854 -0.0279825 0.0186189 0.0307936
9 2 7.97462 8.72704 7.16898 0.00199743 -0.0102267 0.0147776
10 1 7.0524 8.56948 7.46784 -0.000927607 -0.00267666 0.00626192
11 2 6.66539 7.9029 6.88464 0.0245361 -0.0121345 0.0130564
12 2 6.64904 9.6869 9.0511 0.00276754 -0.0198304 0.0110698
13 1 6.77599 8.77735 2.66438 0.00332158 0.00231457 0.00155387
14 2 6.50049 9.1912 11.6612 0.00604728 0.00467013 -0.0190259
15 2 6.96306 7.85439 2.45852 -0.0275926 0.00486256 0.0425347
16 1 9.5677 7.36515 11.0875 -0.00185463 0.00196389 -0.00089523
17 2 9.82953 7.15874 2.17129 -0.0384503 -0.024434 0.00533229
18 2 8.77398 6.77045 11.0098 0.0115206 0.00454352 0.00555548
19 1 4.73548 5.91351 10.7801 0.00854629 0.0070626 0.00415548
20 2 4.18719 5.7183 11.5613 0.0160392 0.0161591 0.0108907
21 2 11.0432 8.24338 9.95961 0.00454476 -0.000206953 -0.00908452
22 1 9.85041 10.3158 11.8792 -1.54865e-05 0.00617821 0.00396297
23 2 9.48277 10.3003 3.00402 0.00215492 0.0204934 -0.020516
24 2 9.6787 9.43013 11.5856 -0.0040833 0.0137443 0.00029924
25 1 3.51882 8.53959 6.42227 -0.000362156 -0.00309951 -8.83619e-05
26 2 3.71769 9.38515 5.98653 -0.00432276 0.0111327 -0.0262101
27 2 3.30378 6.13906 3.64223 0.00717646 -0.0173006 0.0232918
28 1 9.57641 7.13522 4.19389 -0.000884526 0.00621816 -0.00404034
29 2 9.62951 6.45639 4.86279 0.0211191 -0.00157187 0.0253489
30 2 9.14104 7.87729 4.64569 0.015006 -0.0204055 0.0235155
31 1 4.0363 11.0832 5.72339 -0.00474886 -0.00301301 0.00463468
32 2 3.40923 11.9308 5.59684 0.00879304 -0.0102631 -0.0147876
33 2 4.64717 11.066 4.94745 -0.00698483 -0.0392455 -0.0180155
34 1 7.69064 5.02554 8.90125 -0.00215508 -0.00386471 0.00278706
35 2 7.81307 4.19272 9.30082 -4.40683e-05 0.0099235 0.00761433
36 2 7.37276 5.52666 9.62165 -0.0255472 -0.0185983 0.00448944
37 1 8.09321 11.8798 10.4415 -0.00311957 -0.00702454 0.0112121
38 2 9.21269 12.0365 9.08932 0.00413769 -0.0119446 -0.000818693
39 2 8.67496 11.3056 11.0015 0.0272046 -0.0125712 -0.00351081
40 1 3.09497 13.3942 5.26438 0.0047125 0.00908712 0.00805719
41 2 3.5874 4.56577 4.01491 0.0186084 -0.0186747 0.0105385
42 2 11.995 13.3516 5.11811 -0.0216848 -0.0141266 0.0168716
43 1 3.9131 5.42125 3.53649 -0.000127876 0.0028808 -0.00270497
44 2 12.5095 7.93593 5.27814 0.0106389 0.0119948 -0.00396883
45 2 8.07081 12.6826 3.71057 -0.00504648 -0.0225489 0.0172819
46 1 9.84629 12.3112 8.30911 -0.0004819 -0.00712467 0.00760834
47 2 8.52754 12.6902 7.30624 0.00340014 -0.016881 -0.00958827
48 2 10.1659 11.5595 7.87903 0.000612698 -0.00527096 -0.00897005
49 1 10.2244 6.68358 8.10741 -0.00404554 -0.00487737 -0.00212646
50 2 9.62931 6.00839 7.87139 0.0268755 0.00411699 -0.00466988
51 2 10.2 6.70119 9.0765 -0.00937413 -0.0182229 -0.0224164
52 1 9.02749 10.9798 4.49032 -0.00205315 -0.00315676 -0.000764928
53 2 9.10642 10.1882 5.04315 0.00957369 -0.0162834 -0.0184142
54 2 8.44399 11.5297 4.98403 -0.0135174 -0.0237562 -0.0276528
55 1 5.0834 10.9961 3.30098 -0.000858662 0.00185714 -0.000190822
56 2 5.76633 10.2466 3.25491 0.00338629 -0.00673589 -0.0248954
57 2 4.30467 10.6168 2.90199 0.00507893 -0.000399576 0.011531
58 1 6.16325 10.0826 9.79967 -0.00254436 0.00387264 -0.00707781
59 2 4.52464 13.7975 7.88047 0.00260306 0.0210257 -0.00525937
60 2 7.3518 11.1767 10.2027 -0.0219367 -0.0196629 0.0326214
61 1 7.89158 5.52007 6.29984 -0.00142693 0.00011581 0.000389856
62 2 7.95188 5.70124 7.25117 0.0241007 -0.000426905 -0.0206759
63 2 6.97409 5.59528 6.16366 0.0395641 0.0189321 0.00335128
64 1 5.323 12.3295 7.93773 -0.000344796 -0.00104304 0.00447355
65 2 5.01659 11.8415 7.15286 0.0105164 -0.0150079 0.027527
66 2 3.4319 4.0863 6.35459 -0.0318968 -0.0451429 -0.0556451
67 1 11.3789 10.0091 7.66495 -0.00181939 0.00434951 -0.00688765
68 2 12.0537 9.81004 6.99677 0.00430364 -0.00173169 -0.018645
69 2 11.7186 9.61811 8.51524 0.00947692 0.0201397 -0.0196146
70 1 10.4643 4.1708 4.79201 0.00331509 0.00266615 -0.0012901
71 2 10.2341 13.8374 3.87796 0.0113781 0.00363064 0.00599227
72 2 9.78096 4.70289 5.13191 -0.0173338 -0.0102289 -0.0243627
73 1 9.49563 8.72449 6.2976 0.00186744 -0.00740987 -0.001394
74 2 9.76748 7.94337 6.8034 0.0136673 0.0257134 -0.0211308
75 2 9.99633 9.4752 6.71328 -0.000891412 -0.0277268 -0.0241921
76 1 12.2779 5.04438 9.73261 -0.00412795 -0.00425698 -0.00697666
77 2 11.9231 5.92601 9.60452 0.0146931 0.000996541 0.0274148
78 2 4.27735 5.46031 10.0181 -0.0242082 -0.00400238 -0.00862849
79 1 11.981 8.63009 9.94885 0.00326026 0.0001226 -0.00533455
80 2 12.133 9.02343 10.8329 -0.0111264 0.0226684 0.0169592
81 2 5.52605 10.6127 9.33868 -0.0236569 0.0152999 -0.0226781