ITEM: TIMESTEP
0
ITEM: NUMBER OF ATOMS
96
ITEM: BOX BOUNDS pp pp pp
2.9236100000000000e+00 1.2773600000000000e+01
4.0306300000000004e+00 1.3880599999999999e+01
2.1372399999999998e+00 1.1987200000000000e+01
ITEM: ATOMS id type x y z vx vy vz
1 1 7.20265 13.6737 3.46415 -0.000929466 -0.00147657 -0.00550101
2 2 6.80312 12.7811 3.39842 0.0180203 0.029617 0.00423704
3 2 12.2986 13.2793 11.3836 0.0158121 0.0034668 0.00094779
4 1 3.96852 12.1752 10.9251 0.0033582 0.000992898 -0.00131696
5 2 3.4379 11.3282 10.929 0.0184923 0.0061327 0.0287321
6 2 4.52735 12.0906 10.1302 -0.0338786 -0.0224389 -0.0146016
7 1 12.4978 7.18907 3.9984 -0.00174471 0.00196811 -0.00639072
8 2 11.6184 6.6987 3.92462 -0.0215443 -0.011253 -0.0112271
9 2 7.83939 8.42175 7.47827 0.0146557 0.0073801 -0.0470075
10 1 6.98484 8.66257 8.03782 0.00315966 -0.0033119 -0.00282909
11 2 6.19193 8.28255 7.6255 0.00184834 0.012023 0.0256425
12 2 6.51866 10.377 8.86046 -0.00680194 -0.0178796 -0.0200266
13 1 6.87912 8.30479 10.9285 -0.00147298 -0.00014934 0.000406201
14 2 7.05219 8.26089 9.95797 0.0050513 0.00287688 -0.0261927
15 2 6.0507 7.78529 11.012 0.00646881 -0.0341591 0.0160727
16 1 9.39037 7.61371 11.4258 0.000932558 0.00364251 0.00477493
17 2 9.6922 7.25126 2.39855 0.00895514 -0.00157886 -0.00904917
18 2 8.39762 7.71093 11.5321 0.0135703 -0.0153637 -0.00661781
19 1 4.02516 7.346 11.5304 -0.000754671 0.0048411 0.00395291
20 2 3.61467 7.1461 2.60218 0.0167933 0.0147125 0.0187984
21 2 11.559 9.64618 10.8883 -0.0146039 -0.00559823 -0.0173047
22 1 9.77484 10.237 2.28422 0.00234964 0.00513543 -0.00584584
23 2 9.18311 10.3056 3.07487 -0.0103942 0.00770316 0.00584504
24 2 9.62506 9.34408 11.7046 -0.00404953 0.0293064 -0.00671646
25 1 12.6683 8.81077 6.1757 -0.000541513 -0.00720648 0.00361089
26 2 3.28416 9.63868 6.05196 -0.0263025 0.0148073 0.0185458
27 2 4.57785 6.2323 4.26894 -0.00739495 0.0111212 -0.02744
28 1 10.0683 6.19191 4.08383 -0.00339306 0.000737219 -0.00301188
29 2 10.1653 5.22349 4.40453 0.0307348 -0.00251339 -0.00378935
30 2 9.57216 6.75395 4.69328 -0.0167562 -0.00661753 -0.0161965
31 1 4.56215 10.9984 5.44088 0.0011633 -0.00150212 0.00300952
32 2 3.76341 11.3756 5.12036 -0.0172816 -0.0217313 -0.000950523
33 2 5.04765 10.8145 4.63715 0.0036743 -0.00482797 0.0182372
34 1 7.34124 4.57808 9.38563 0.00186058 -0.000165196 0.00261341
35 2 8.05074 13.7462 9.51921 0.0109186 0.0070408 0.00375737
36 2 6.77433 4.62491 10.2657 0.0142794 0.0136547 -0.00711908
37 1 9.04288 12.2471 10.2385 0.000908912 0.000954227 0.00400834
38 2 9.94623 12.1312 8.61673 -0.0163107 0.0328114 0.00127186
39 2 9.41681 11.719 10.9915 0.019921 -0.0115322 -0.00857423
40 1 12.4864 13.0154 5.3428 0.00102273 -0.000265764 0.00102887
41 2 4.76979 5.25493 5.44967 0.0164006 -0.00486032 0.0223609
42 2 11.5936 13.1542 5.12401 0.00399573 0.00547319 0.0205754
43 1 5.25801 5.87442 4.90576 0.00320258 0.000370738 0.000690681
44 2 12.385 7.92992 4.70869 -0.00323892 -0.0136821 -0.00455257
45 2 6.72465 4.17345 4.19916 -0.00532909 -0.0340241 0.00272405
46 1 10.1888 11.9469 7.66628 0.00873339 5.97731e-05 0.00123394
47 2 9.24884 11.735 7.16926 0.0197678 -0.00779788 0.00189954
48 2 10.7568 10.6445 7.79497 -0.0150986 -0.0119813 0.016247
49 1 9.81621 6.50043 9.02228 0.000570288 0.00142756 0.000543194
50 2 9.22066 5.74575 9.25381 -0.00248878 -0.00247639 0.025395
51 2 9.91207 6.98665 9.76999 -0.0103876 0.000253525 -0.0217913
52 1 8.31529 9.81653 4.88096 -0.00129647 0.00161338 0.00309397
53 2 8.66071 9.05065 5.3663 0.00607107 -0.00386205 -0.0264348
54 2 8.1201 10.5014 5.44168 0.0199537 0.0197132 0.00585086
55 1 6.10582 10.9306 2.85679 -0.00205837 -0.010027 6.12888e-05
56 2 6.81606 10.5922 2.40183 -0.00832915 -0.0156215 -0.00189595
57 2 5.37766 11.0341 2.18008 -0.0307212 -0.0151896 -0.015756
58 1 6.62264 11.2934 9.09146 0.000572648 -0.00139557 -0.000440261
59 2 4.00761 13.3191 7.87578 -0.00834575 -0.00703662 0.00826762
60 2 8.34601 11.698 9.8417 -0.00369999 -0.00821222 -0.0277309
61 1 7.68415 4.86999 6.47413 -0.00286729 -0.0014331 0.000746626
62 2 7.55975 4.91145 7.40708 0.0382929 0.0229131 -0.0327077
63 2 6.93919 5.32043 6.10907 0.00958252 -0.00931829 0.0282892
64 1 4.3503 12.3586 8.0502 -6.2472e-05 -0.00144105 -0.00462498
65 2 4.47984 11.925 7.18781 -0.0173956 0.00838905 0.0122276
66 2 12.5733 13.4079 6.25276 0.00456239 -0.0284155 -0.00649953
67 1 10.9019 9.46748 8.03583 -0.00327418 0.00928859 0.00305796
68 2 11.7763 9.19508 7.29039 0.00444771 0.0155424 0.0227614
69 2 11.4927 9.50358 8.9004 -0.0177684 0.0104605 -0.00773692
70 1 9.81994 13.2935 4.26624 0.0016804 -0.00202707 0.00536091
71 2 10.19 13.1625 3.35996 -0.0106139 0.0125875 -0.00264542
72 2 8.85919 13.523 4.17281 0.014563 0.0192095 -0.000767643
73 1 9.23762 7.53237 6.30107 0.00437509 0.00126177 0.00353852
74 2 8.57576 6.7854 6.38672 0.0154283 0.0169085 -0.00770238
75 2 9.82199 7.45761 7.10527 -0.0286292 -0.0148641 5.88377e-05
76 1 12.2696 5.79258 9.66949 -0.00492992 -0.00770661 0.00274719
77 2 11.4429 6.03949 9.08274 0.0197118 0.0139717 0.022071
78 2 3.60235 6.7362 10.8838 -0.0186353 -0.0142044 0.00247149
79 1 12.2914 9.46508 10.2771 -0.00185628 0.00476485 -0.00101768
80 2 12.4975 8.53135 10.5385 -0.0142952 0.00704866 -0.00166958
81 2 5.83629 11.8234 8.74499 0.00505387 -0.01331 0.00477647
82 1 5.73314 5.11401 11.4608 -0.00430743 0.00552712 0.0012333
83 2 6.06969 4.64967 2.39566 0.0173275 -0.0130329 -0.00188453
84 2 5.46177 6.03356 11.6748 -0.0207853 0.00745903 -0.000659272
85 1 11.4596 13.7767 11.3718 0.00354063 0.00497274 -0.00435618
86 2 10.8758 13.1161 10.9086 -0.0176922 0.00276169 0.00868522
87 2 11.9417 4.97792 10.2084 -0.00868945 -0.0202772 -0.0339922
88 1 7.76698 11.9945 6.729 -0.00214714 -0.00556196 -0.0019244
89 2 7.37881 11.8493 7.70867 0.00945931 -0.0114363 -0.00232727
90 2 7.9218 12.9195 6.49991 0.00295852 -0.00451763 -0.0136049
91 1 4.83244 7.2824 7.04273 0.00108451 -3.70613e-05 -0.00105097
92 2 3.92496 7.90454 6.93928 0.00972917 -0.00469308 -0.00693121
93 2 4.18289 5.79223 7.30838 -0.00474978 -0.00761262 0.0124229
94 1 3.43579 5.11897 7.28336 -0.00448723 0.00132023 -0.00188625
95 2 12.7106 5.28734 8.03746 -0.0138376 0.0114291 -0.0138328
96 2 5.0894 7.09444 6.13059 -0.0184178 -0.0269387 0.00720508
ITEM: TIMESTEP
1
ITEM: NUMBER OF ATOMS
96
ITEM: BOX BOUNDS pp pp pp
2.9236100000000000e+00 1.2773600000000000e+01
4.0306300000000004e+00 1.3880599999999999e+01
2.1372399999999998e+00 1.1987200000000000e+01
ITEM: ATOMS id type x y z vx vy vz
1 1 7.20218 13.6729 3.46138 -0.00093445 -0.0016113 -0.00558423
2 2 6.81238 12.7958 3.40032 0.0185235 0.0278903 0.00307629
3 2 12.3069 13.2813 11.3843 0.0169272 0.00450645 0.00162016
4 1 3.97017 12.1756 10.9244 0.00324476 0.000562222 -0.00129664
5 2 3.44815 11.3325 10.9429 0.0220228 0.0106285 0.0270679
6 2 4.50965 12.0794 10.1233 -0.0365299 -0.0220196 -0.0131987
7 1 12.497 7.19012 3.99526 -0.0016077 0.00218892 -0.00616934
8 2 11.6077 6.69335 3.91916 -0.0204627 -0.00975115 -0.0105466
9 2 7.84382 8.42583 7.45604 0.00251514 0.00902105 -0.0414518
10 1 6.98658 8.66092 8.03637 0.00388008 -0.00328219 -0.00295422
11 2 6.19319 8.28816 7.63791 0.00275438 0.0101846 0.0236289
12 2 6.51502 10.3669 8.84979 -0.00756152 -0.0218074 -0.0223669
13 1 6.87834 8.30468 10.9287 -0.00164528 -0.000321161 0.000159881
14 2 7.05463 8.26264 9.94533 0.00436105 0.00409013 -0.0233161
15 2 6.05432 7.7687 11.0203 0.00848117 -0.0318592 0.0167477
16 1 9.39082 7.61559 11.4282 0.000901707 0.00388216 0.00477043
17 2 9.69708 7.2498 2.3949 0.0105619 -0.00433411 -0.00533402
18 2 8.40424 7.70325 11.5284 0.0123736 -0.0152633 -0.00791834
19 1 4.02479 7.34837 11.5324 -0.000743772 0.00458697 0.00405398
20 2 3.62322 7.15383 2.61013 0.0173651 0.0161517 0.0128413
21 2 11.5516 9.6436 10.8796 -0.0149917 -0.00465192 -0.0173409
22 1 9.776 10.2396 2.28129 0.00226889 0.00524908 -0.00582993
23 2 9.17847 10.3088 3.07713 -0.00786604 0.00490309 0.00280763
24 2 9.62281 9.35921 11.702 -0.00505004 0.0306017 -0.00380679
25 1 12.668 8.80717 6.17765 -0.000499802 -0.00715228 0.00418791
26 2 3.27093 9.64529 6.0611 -0.0265828 0.0113917 0.01793
27 2 4.57466 6.23722 4.25644 -0.00486089 0.00810558 -0.021819
28 1 10.0666 6.19218 4.08224 -0.00335659 0.000331323 -0.0033497
29 2 10.1799 5.2234 4.40258 0.0274542 0.00226695 -0.00397216
30 2 9.56387 6.75028 4.68626 -0.0163992 -0.00803986 -0.0118053
31 1 4.56276 10.9976 5.44243 0.00124284 -0.00172157 0.00321006
32 2 3.75361 11.3658 5.11969 -0.0213715 -0.0176412 -0.00162436
33 2 5.05014 10.812 4.64587 0.0063432 -0.00508837 0.0163266
34 1 7.3422 4.57798 9.387 0.00199533 -0.00023479 0.00284649
35 2 8.05488 13.7504 9.52154 0.0056998 0.00980072 0.00556498
36 2 6.78278 4.63159 10.2603 0.0191575 0.013047 -0.0137953
37 1 9.0434 12.2476 10.2405 0.00112902 0.000946138 0.00397022
38 2 9.93779 12.1475 8.61739 -0.0171903 0.0321031 0.00105187
39 2 9.42623 11.713 10.9868 0.0175578 -0.0126375 -0.010421
40 1 12.487 13.0153 5.3434 0.00138088 -0.000247978 0.00134355
41 2 4.77743 5.25264 5.46064 0.0142008 -0.00396406 0.0210857
42 2 11.5941 13.157 5.13382 -0.00211747 0.00573563 0.0185436
43 1 5.2596 5.87463 4.90604 0.00313451 0.000457614 0.000402073
44 2 12.3837 7.92233 4.70624 -0.00197908 -0.0164886 -0.00511872
45 2 6.72172 4.15714 4.20141 -0.00641295 -0.0309279 0.00646356
46 1 10.1932 11.947 7.6669 0.00872596 0.00037822 0.00125875
47 2 9.25927 11.7311 7.1705 0.0218653 -0.00752108 0.00296821
48 2 10.7492 10.6379 7.8032 -0.0153347 -0.0141765 0.0165025
49 1 9.81649 6.50097 9.0223 0.000518274 0.000706373 -0.00045757
50 2 9.21942 5.74485 9.26651 -0.00225651 -0.000898978 0.0251444
51 2 9.907 6.98878 9.7622 -0.00975878 0.00871476 -0.00901896
52 1 8.31468 9.81722 4.88233 -0.00115712 0.00120634 0.00238204
53 2 8.66373 9.04904 5.35356 0.0060702 -0.0026093 -0.0242704
54 2 8.12963 10.5128 5.44656 0.0184426 0.0253501 0.013306
55 1 6.10462 10.9257 2.85685 -0.0027902 -0.00972456 0.000131473
56 2 6.81304 10.5835 2.39964 -0.00397151 -0.0192956 -0.00675783
57 2 5.36366 11.0265 2.17299 -0.0244972 -0.0152633 -0.011901
58 1 6.62296 11.2928 9.09125 0.000713082 -0.00105572 -0.000418098
59 2 4.00427 13.3138 7.87972 -0.00512294 -0.0137455 0.00742662
60 2 8.34406 11.6938 9.82824 -0.00347272 -0.00806195 -0.025608
61 1 7.68279 4.86926 6.47445 -0.00252918 -0.00151564 0.000454115
62 2 7.57858 4.92297 7.39212 0.0369698 0.0232099 -0.0254904
63 2 6.94305 5.3161 6.12281 0.004973 -0.00742796 0.0261087
64 1 4.35024 12.358 8.04788 -0.000198094 -0.00105759 -0.00458867
65 2 4.47083 11.9297 7.19383 -0.0185084 0.0100647 0.0110569
66 2 12.5757 13.3934 6.24836 0.00532816 -0.0291484 -0.0103352
67 1 10.9003 9.47209 8.03731 -0.00315828 0.00910357 0.00285052
68 2 11.7793 9.20214 7.29911 0.00768483 0.0125297 0.0118271
69 2 11.4836 9.50892 8.89754 -0.0181803 0.0108144 -0.00307875
70 1 9.82081 13.2925 4.2689 0.0017992 -0.00189011 0.00527894
71 2 10.184 13.1692 3.35927 -0.0133811 0.0140741 -0.000108653
72 2 8.86704 13.5323 4.1719 0.0166214 0.0179561 -0.00270097
73 1 9.23976 7.53295 6.30289 0.00419108 0.00109342 0.00370125
74 2 8.58473 6.79454 6.38325 0.0197869 0.0190333 -0.00623672
75 2 9.80665 7.45001 7.10449 -0.0320425 -0.0154677 -0.00247594
76 1 12.267 5.78873 9.67079 -0.00524883 -0.00769928 0.00249359
77 2 11.4536 6.04646 9.0951 0.022525 0.0141764 0.0266945
78 2 3.59299 6.72931 10.8856 -0.0184815 -0.0128698 0.00519689
79 1 12.2905 9.46744 10.2767 -0.00181624 0.00466908 -0.000692992
80 2 12.4906 8.53551 10.5373 -0.0130228 0.00943924 -0.00321555
81 2 5.83855 11.8163 8.74744 0.00385556 -0.0149926 0.00496414
82 1 5.73094 5.1168 11.4614 -0.00447414 0.00561893 0.000994364
83 2 6.07868 4.64337 2.39543 0.0183466 -0.011718 0.000513066
84 2 5.45128 6.03708 11.6747 -0.021064 0.00624689 0.000294139
85 1 11.4613 13.7791 11.3696 0.00341055 0.00454534 -0.00445553
86 2 10.867 13.1185 10.9133 -0.0171848 0.00699375 0.0102635
87 2 11.9377 4.96834 10.1914 -0.00745121 -0.0184227 -0.0336602
88 1 7.76587 11.9916 6.7281 -0.00226116 -0.00604134 -0.00167671
89 2 7.38399 11.8444 7.70608 0.0111959 -0.00817954 -0.00795372
90 2 7.92278 12.9183 6.49369 0.000898509 -0.000590533 -0.0111079
91 1 4.83285 7.28253 7.04228 0.00057292 0.000545189 -0.000742738
92 2 3.93038 7.902 6.935 0.0116629 -0.00528464 -0.0100336
93 2 4.18052 5.78879 7.31481 -0.00460252 -0.00607375 0.0132563
94 1 3.43356 5.11951 7.28235 -0.00442281 0.00084952 -0.00213935
95 2 12.7035 5.29345 8.03166 -0.0146925 0.0129235 -0.00948516
96 2 5.08072 7.08043 6.13281 -0.0160818 -0.0291426 0.00138033
ITEM: TIMESTEP
2
ITEM: NUMBER OF ATOMS
96
ITEM: BOX BOUNDS pp pp pp
2.9236100000000000e+00 1.2773600000000000e+01
4.0306300000000004e+00 1.3880599999999999e+01
2.1372399999999998e+00 1.1987200000000000e+01
ITEM: ATOMS id type x y z vx vy vz
1 1 7.20172 13.6721 3.45857 -0.000893569 -0.0015799 -0.0056523
2 2 6.82164 12.809 3.4015 0.0180536 0.0231794 0.00129347
3 2 12.3155 13.2838 11.3852 0.0168825 0.00574833 0.00200989
4 1 3.97176 12.1758 10.9238 0.00313749 0.000191567 -0.00123753
5 2 3.45992 11.3388 10.9561 0.0245105 0.0139534 0.0256154
6 2 4.49082 12.0686 10.117 -0.0383407 -0.0213132 -0.0125056
7 1 12.4962 7.19126 3.99223 -0.00153902 0.00233441 -0.00597592
8 2 11.5979 6.68895 3.91407 -0.0182013 -0.00749901 -0.00973324
9 2 7.84191 8.43077 7.43682 -0.010314 0.010775 -0.0351911
10 1 6.98872 8.65929 8.03487 0.00469755 -0.0032242 -0.00307132
11 2 6.19468 8.29273 7.64913 0.00279684 0.00787555 0.0209659
12 2 6.5111 10.3552 8.83809 -0.00787186 -0.0238611 -0.0240793
13 1 6.87747 8.30447 10.9287 -0.00182647 -0.000529031 -0.000183203
14 2 7.05655 8.26498 9.93465 0.00301857 0.00521938 -0.0185548
15 2 6.05918 7.75343 11.0287 0.0112981 -0.0289119 0.0169227
16 1 9.39127 7.61759 11.4306 0.000935438 0.00410806 0.00472578
17 2 9.70276 7.24693 2.39322 0.0120776 -0.00712525 -0.00141565
18 2 8.40999 7.69567 11.5242 0.0101803 -0.0150318 -0.00894392
19 1 4.02442 7.35059 11.5345 -0.000750005 0.00427616 0.0040962
20 2 3.63204 7.16225 2.61502 0.0177739 0.0174546 0.00674542
21 2 11.544 9.64153 10.871 -0.0153818 -0.003565 -0.0172356
22 1 9.77711 10.2422 2.27839 0.00217032 0.00545874 -0.00573139
23 2 9.17524 10.3105 3.07768 -0.00485656 0.00213176 -0.000840574
24 2 9.62001 9.37468 11.7008 -0.00626816 0.0305738 -0.00156957
25 1 12.6678 8.80362 6.17989 -0.000493596 -0.0070346 0.0047984
26 2 3.25758 9.65007 6.06989 -0.0266695 0.00760537 0.0170949
27 2 4.57299 6.24041 4.24712 -0.00154083 0.00429634 -0.0149361
28 1 10.0649 6.19224 4.08048 -0.00330223 -8.84758e-05 -0.00370694
29 2 10.1928 5.22576 4.40056 0.0239003 0.00711026 -0.00402615
30 2 9.55576 6.74591 4.68147 -0.0160293 -0.00945813 -0.00728585
31 1 4.56339 10.9967 5.44409 0.00123484 -0.00190264 0.00342234
32 2 3.74204 11.358 5.11874 -0.0241363 -0.0141156 -0.00205592
33 2 5.05399 10.8094 4.65348 0.00904564 -0.00531825 0.0138826
34 1 7.34324 4.57785 9.38848 0.0021637 -0.000282623 0.00301045
35 2 8.05644 13.756 9.52477 0.000798086 0.012187 0.00740058
36 2 6.79349 4.63796 10.2519 0.023092 0.0124135 -0.0191616
37 1 9.04401 12.248 10.2425 0.00129293 0.000884631 0.00388836
38 2 9.92904 12.1633 8.61778 -0.017572 0.0310739 0.000243923
39 2 9.43437 11.7064 10.9811 0.0148437 -0.0137237 -0.0125344
40 1 12.4878 13.0152 5.34414 0.00173192 -0.000278901 0.0015664
41 2 4.78399 5.25097 5.47076 0.0120767 -0.00246634 0.019026
42 2 11.5915 13.1599 5.14255 -0.0083812 0.00595575 0.0163279
43 1 5.26114 5.87488 4.90616 0.00300144 0.000549706 7.87638e-05
44 2 12.383 7.91343 4.70357 -0.000837406 -0.0188503 -0.0054005
45 2 6.71824 4.14252 4.20562 -0.00741756 -0.0272803 0.0104654
46 1 10.1975 11.9473 7.66754 0.0086422 0.000750655 0.00131434
47 2 9.27071 11.7275 7.17223 0.0237929 -0.0070033 0.00384929
48 2 10.7415 10.6303 7.81147 -0.01538 -0.0157497 0.0165038
49 1 9.81673 6.50114 9.02182 0.000410982 -6.52698e-05 -0.00142856
50 2 9.2184 5.74485 9.27895 -0.00160464 0.00112912 0.0244161
51 2 9.90231 6.99536 9.76097 -0.00898744 0.017606 0.00380756
52 1 8.31413 9.81774 4.88334 -0.00106323 0.000910823 0.00170793
53 2 8.66678 9.04804 5.34203 0.00617439 -0.00136295 -0.0216769
54 2 8.13854 10.5268 5.45499 0.0175256 0.029289 0.0197395
55 1 6.10303 10.9209 2.85692 -0.00357003 -0.00944197 0.000102252
56 2 6.81209 10.5729 2.39507 -0.000270153 -0.0226941 -0.0112416
57 2 5.35316 11.0188 2.16818 -0.0169244 -0.0154479 -0.00684216
58 1 6.62335 11.2923 9.09104 0.000858125 -0.000874548 -0.000421934
59 2 4.00249 13.3054 7.88321 -0.00220754 -0.0195633 0.00647977
60 2 8.34254 11.6899 9.81609 -0.00206909 -0.00709833 -0.0225731
61 1 7.68162 4.86847 6.47458 -0.00208878 -0.00167507 2.83129e-05
62 2 7.59672 4.93466 7.38159 0.0356423 0.0236201 -0.0153625
63 2 6.94416 5.313 6.13518 -0.0012077 -0.00456119 0.0229517
64 1 4.3501 12.3575 8.04561 -0.00034472 -0.000674282 -0.0044495
65 2 4.46133 11.9351 7.19887 -0.0193167 0.010855 0.00829398
66 2 12.5786 13.3788 6.24242 0.00642037 -0.0292073 -0.0125411
67 1 10.8987 9.47658 8.03868 -0.00305163 0.00883881 0.00261866
68 2 11.784 9.20761 7.30222 0.010963 0.00919852 0.000446617
69 2 11.4745 9.51439 8.89732 -0.0180591 0.011072 0.00251704
70 1 9.82174 13.2916 4.27152 0.0019325 -0.00175403 0.00518258
71 2 10.1766 13.1766 3.35985 -0.0156715 0.0153837 0.00233068
72 2 8.87581 13.541 4.17011 0.0181416 0.0168569 -0.00424571
73 1 9.24181 7.53346 6.30477 0.00401023 0.00100501 0.0037782
74 2 8.59555 6.80443 6.38048 0.0226624 0.0198169 -0.00491118
75 2 9.78995 7.44214 7.10279 -0.0339628 -0.0159103 -0.00349023
76 1 12.2644 5.78488 9.67198 -0.00543454 -0.00767693 0.00228861
77 2 11.4654 6.05367 9.10943 0.0237253 0.015007 0.0298597
78 2 3.58387 6.72333 10.889 -0.0177283 -0.0106277 0.00892706
79 1 12.2896 9.46975 10.2764 -0.00179243 0.00459033 -0.00038363
80 2 12.4845 8.54079 10.5353 -0.0115366 0.0114002 -0.00467697
81 2 5.84015 11.8084 8.74995 0.00250311 -0.0162273 0.00503538
82 1 5.72867 5.11963 11.4618 -0.00461426 0.00570289 0.00080554
83 2 6.08804 4.63795 2.39617 0.0187845 -0.00949469 0.00197814
84 2 5.44071 6.03981 11.6751 -0.0211378 0.00433405 0.0014116
85 1 11.463 13.7812 11.3673 0.00331008 0.00409269 -0.00454679
86 2 10.8586 13.1231 10.9189 -0.0159965 0.0112416 0.0120106
87 2 11.9342 4.9595 10.1747 -0.00636093 -0.0173657 -0.0326265
88 1 7.76472 11.9885 6.72732 -0.00231981 -0.00648699 -0.00146406
89 2 7.39001 11.8411 7.70072 0.0126675 -0.00479807 -0.0132007
90 2 7.9227 12.9189 6.4888 -0.00128081 0.00264353 -0.00833067
91 1 4.83301 7.28295 7.04199 8.49795e-05 0.00109519 -0.000419298
92 2 3.93662 7.89926 6.92925 0.0130251 -0.00549898 -0.0127736
93 2 4.17829 5.78616 7.32164 -0.00429237 -0.00442092 0.0139841
94 1 3.43137 5.11982 7.28122 -0.00436636 0.000400727 -0.00236909
95 2 12.6959 5.30026 8.02797 -0.0154811 0.0141976 -0.00549111
96 2 5.07332 7.0653 6.13197 -0.0134315 -0.0313815 -0.00472662
ITEM: TIMESTEP
3
ITEM: NUMBER OF ATOMS
96
ITEM: BOX BOUNDS pp pp pp
2.9236100000000000e+00 1.2773600000000000e+01
4.0306300000000004e+00 1.3880599999999999e+01
2.1372399999999998e+00 1.1987200000000000e+01
ITEM: ATOMS id type x y z vx vy vz
1 1 7.20128 13.6713 3.45573 -0.000825564 -0.00138165 -0.0056866
2 2 6.83043 12.819 3.40162 0.0166935 0.015525 -0.00116841
3 2 12.3238 13.287 11.3863 0.0157287 0.00710979 0.0021091
4 1 3.97331 12.1758 10.9232 0.00304623 -9.73857e-05 -0.00113887
5 2 3.47266 11.3465 10.9685 0.0257811 0.0157993 0.0244672
6 2 4.47131 12.0581 10.1108 -0.0392843 -0.0203445 -0.0126101
7 1 12.4954 7.19245 3.98929 -0.00153131 0.00240475 -0.00581417
8 2 11.5895 6.68585 3.90943 -0.014909 -0.00460895 -0.00881456
9 2 7.8335 8.4366 7.42085 -0.0230684 0.0124819 -0.0286565
10 1 6.99128 8.65769 8.0333 0.00556281 -0.00313249 -0.00316515
11 2 6.19598 8.29604 7.65887 0.00197889 0.00517169 0.0177785
12 2 6.50715 10.343 8.82571 -0.00768369 -0.0238567 -0.0250711
13 1 6.87652 8.30415 10.9285 -0.0020038 -0.000759745 -0.000593694
14 2 7.05765 8.26786 9.92678 0.00112623 0.00621224 -0.0123293
15 2 6.06562 7.73978 11.0372 0.0146457 -0.025486 0.0166171
16 1 9.39176 7.6197 11.4329 0.00103381 0.00431048 0.00466095
17 2 9.70916 7.24267 2.39349 0.0133125 -0.00979209 0.00232034
18 2 8.41442 7.68822 11.5195 0.00719037 -0.0147287 -0.00969288
19 1 4.02404 7.35264 11.5365 -0.000758818 0.00392681 0.00407236
20 2 3.641 7.17128 2.61688 0.0179266 0.018571 0.000937642
21 2 11.5362 9.64003 10.8624 -0.0157625 -0.0023827 -0.0169734
22 1 9.77817 10.245 2.27556 0.00206686 0.00576231 -0.00556283
23 2 9.17361 10.3109 3.07629 -0.00158734 -0.000493975 -0.00474528
24 2 9.61655 9.38979 11.7005 -0.00767826 0.029136 -0.000144375
25 1 12.6675 8.80014 6.18244 -0.000533876 -0.00686258 0.00544332
26 2 3.24426 9.6529 6.0782 -0.0264345 0.00370107 0.0160114
27 2 4.57312 6.24152 4.2415 0.0021825 -7.63264e-06 -0.00727351
28 1 10.0633 6.19209 4.07854 -0.00324098 -0.000498952 -0.00407937
29 2 10.2038 5.23051 4.39855 0.0201758 0.011732 -0.0038919
30 2 9.54784 6.74083 4.67897 -0.0155828 -0.0108858 -0.00275794
31 1 4.564 10.9957 5.44585 0.0011307 -0.00204286 0.00362155
32 2 3.72947 11.3517 5.11764 -0.025236 -0.0112576 -0.00213899
33 2 5.05918 10.8067 4.65976 0.0115654 -0.00543916 0.0111834
34 1 7.34436 4.5777 9.39001 0.00236394 -0.000294783 0.00307161
35 2 8.05568 13.7626 9.52894 -0.00338534 0.0138833 0.00923434
36 2 6.80588 4.64401 10.2412 0.0257464 0.0118443 -0.0227723
37 1 9.04469 12.2485 10.2444 0.00140722 0.000776144 0.00376405
38 2 9.92022 12.1785 8.61763 -0.0174475 0.0297327 -0.00110968
39 2 9.44108 11.6992 10.9743 0.0119151 -0.0147747 -0.0147722
40 1 12.4887 13.015 5.34497 0.00203797 -0.000357076 0.00167479
41 2 4.78951 5.25017 5.47966 0.0100145 -0.000518763 0.0163217
42 2 11.5857 13.163 5.15015 -0.0141776 0.00605613 0.0141156
43 1 5.26261 5.87518 4.90612 0.00282994 0.000637371 -0.000256881
44 2 12.3829 7.90348 4.70084 0.000165909 -0.0206767 -0.00532622
45 2 6.7143 4.12986 4.21187 -0.00815408 -0.0231461 0.0144611
46 1 10.2018 11.9478 7.66821 0.00849353 0.00116587 0.00140416
47 2 9.28306 11.7241 7.17435 0.0255648 -0.00628565 0.00451128
48 2 10.7338 10.6221 7.81971 -0.0152051 -0.0169501 0.0163624
49 1 9.8169 6.50091 9.02087 0.000261772 -0.000828123 -0.00228413
50 2 9.21782 5.74598 9.29092 -0.000534475 0.00360821 0.023239
51 2 9.89801 7.00639 9.766 -0.00827646 0.0259842 0.0153921
52 1 8.31362 9.81813 4.88403 -0.00101704 0.00075513 0.00110918
53 2 8.66991 9.04767 5.33189 0.00636296 -7.87845e-05 -0.0187502
54 2 8.14716 10.5421 5.4663 0.0172567 0.0310264 0.0246676
55 1 6.10105 10.9162 2.85695 -0.00433709 -0.00919717 -1.7724e-05
56 2 6.81277 10.5608 2.3884 0.00233787 -0.0255861 -0.0150162
57 2 5.34673 11.0111 2.16615 -0.0085126 -0.0156763 -0.00102198
58 1 6.62382 11.2919 9.09083 0.000999406 -0.000861975 -0.000456955
59 2 4.00206 13.2943 7.8862 0.000221984 -0.0240387 0.0054443
60 2 8.34199 11.6867 9.80567 0.000267104 -0.00541609 -0.0187991
61 1 7.6807 4.86759 6.47448 -0.00159512 -0.00189078 -0.000481402
62 2 7.61422 4.94659 7.37675 0.0344878 0.0241517 -0.00339999
63 2 6.94185 5.31154 6.14576 -0.00836746 -0.00109474 0.0191812
64 1 4.34989 12.3573 8.04343 -0.000490318 -0.000319671 -0.00421529
65 2 4.45151 11.9406 7.20213 -0.0198307 0.0107297 0.00403872
66 2 12.5822 13.3642 6.23582 0.00782338 -0.0285458 -0.0129451
67 1 10.8972 9.48093 8.03993 -0.00295762 0.00851966 0.00237133
68 2 11.7903 9.21134 7.29956 0.0143176 0.0055718 -0.0110816
69 2 11.4656 9.51999 8.90005 -0.0175185 0.0112236 0.00840739
70 1 9.82274 13.2908 4.27409 0.00208137 -0.00162308 0.00508242
71 2 10.1683 13.1846 3.3616 -0.0173225 0.0164575 0.00444887
72 2 8.88518 13.5491 4.16765 0.0189434 0.0159758 -0.00533928
73 1 9.24377 7.53395 6.30667 0.00383949 0.00100924 0.0037573
74 2 8.60739 6.81435 6.37834 0.0238039 0.019055 -0.00378026
75 2 9.77269 7.4341 7.101 -0.0342485 -0.0161777 -0.00277982
76 1 12.2616 5.78105 9.67308 -0.00547464 -0.00764689 0.00213921
77 2 11.4774 6.06147 9.12496 0.0230937 0.0165871 0.0314822
78 2 3.57526 6.71868 10.8945 -0.0164856 -0.00769365 0.0133354
79 1 12.2887 9.47203 10.2763 -0.00178321 0.00454341 -9.06444e-05
80 2 12.4791 8.54691 10.5326 -0.00984692 0.0127457 -0.00598627
81 2 5.84105 11.8 8.75247 0.00107906 -0.0170422 0.00502567
82 1 5.72633 5.1225 11.4622 -0.00472638 0.00577612 0.000673479
83 2 6.09746 4.63387 2.39741 0.0186379 -0.00641815 0.00249128
84 2 5.43014 6.04141 11.6761 -0.0210271 0.00181539 0.00266493
85 1 11.4646 13.7832 11.365 0.00324532 0.00363639 -0.00462055
86 2 10.851 13.1298 10.9253 -0.0142855 0.0152631 0.0137791
87 2 11.9313 4.95097 10.1588 -0.00545355 -0.0171312 -0.0309523
88 1 7.76355 11.9851 6.72664 -0.00232287 -0.00688301 -0.00131063
89 2 7.39666 11.8396 7.69288 0.0137454 -0.00140652 -0.017715
90 2 7.9215 12.9209 6.48536 -0.003569 0.0051116 -0.00532251
91 1 4.83294 7.28363 7.04186 -0.000363963 0.00160046 -0.000116438
92 2 3.9434 7.8965 6.92222 0.0138255 -0.0053461 -0.0151189
93 2 4.17623 5.78437 7.3288 -0.00392537 -0.00276008 0.0145732
94 1 3.4292 5.11991 7.27998 -0.00432499 -1.06688e-05 -0.00255718
95 2 12.688 5.30765 8.02617 -0.0159936 0.0151564 -0.00211502
96 2 5.06729 7.04905 6.12808 -0.0106585 -0.0335188 -0.0105347
ITEM: TIMESTEP
4
ITEM: NUMBER OF ATOMS
96
ITEM: BOX BOUNDS pp pp pp
2.9236100000000000e+00 1.2773600000000000e+01
4.0306300000000004e+00 1.3880599999999999e+01
2.1372399999999998e+00 1.1987200000000000e+01
ITEM: ATOMS id type x y z vx vy vz
1 1 7.20089 13.6707 3.45288 -0.00076096 -0.00104196 -0.0056668
2 2 6.83834 12.8245 3.40033 0.0146811 0.00553083 -0.00423195
3 2 12.3313 13.2909 11.3873 0.0136123 0.0084778 0.00192622
4 1 3.97481 12.1757 10.9227 0.00298042 -0.000288958 -0.00100503
5 2 3.4857 11.3546 10.9805 0.0257364 0.0159508 0.0237149
6 2 4.45154 12.0482 10.1044 -0.0394028 -0.0191399 -0.0135239
7 1 12.4947 7.19366 3.98642 -0.00157441 0.00240347 -0.00568622
8 2 11.583 6.68434 3.90526 -0.0107862 -0.00123076 -0.00782962
9 2 7.81884 8.44325 7.40816 -0.0350168 0.0139972 -0.0223049
10 1 6.99428 8.65616 8.0317 0.00642386 -0.00300589 -0.00322246
11 2 6.19666 8.29791 7.66691 0.000387145 0.00218202 0.0142305
12 2 6.50341 10.3313 8.81302 -0.00697635 -0.0217957 -0.025297
13 1 6.87547 8.30371 10.9281 -0.00216325 -0.000997787 -0.00103837
14 2 7.05768 8.27119 9.92232 -0.00118355 0.00702641 -0.00514526
15 2 6.07383 7.72794 11.0454 0.0182056 -0.0218003 0.0158827
16 1 9.39231 7.6219 11.4352 0.00119147 0.00448087 0.00459469
17 2 9.71607 7.23713 2.39554 0.0140865 -0.0121786 0.00551412
18 2 8.41718 7.68094 11.5145 0.00367915 -0.014411 -0.0101765
19 1 4.02366 7.35451 11.5385 -0.000755199 0.00355943 0.00397792
20 2 3.64996 7.18082 2.61596 0.0177459 0.0194667 -0.00415963
21 2 11.5282 9.63915 10.854 -0.016115 -0.00115247 -0.016542
22 1 9.77918 10.248 2.27283 0.0019706 0.00615008 -0.00534095
23 2 9.17366 10.31 3.07293 0.00171854 -0.0028639 -0.00855511
24 2 9.61233 9.40382 11.7006 -0.00923901 0.0263109 0.000394471
25 1 12.6673 8.79676 6.18533 -0.000631781 -0.0066457 0.0061244
26 2 3.23114 9.65377 6.0859 -0.0257715 -7.27975e-05 0.0146639
27 2 4.57517 6.2404 4.23985 0.00591225 -0.00450186 0.000665138
28 1 10.0617 6.19174 4.0764 -0.00318431 -0.000877414 -0.00446217
29 2 10.2129 5.23749 4.39667 0.0163933 0.0158619 -0.00351679
30 2 9.54018 6.73502 4.67872 -0.014998 -0.0123398 0.001664
31 1 4.56452 10.9946 5.44771 0.000933085 -0.00214472 0.00378704
32 2 3.7168 11.3467 5.1166 -0.0245172 -0.00909038 -0.00182763
33 2 5.06556 10.804 4.66466 0.0136998 -0.00537967 0.00850663
34 1 7.3456 4.57755 9.39155 0.00259352 -0.000260957 0.00300248
35 2 8.05305 13.7699 9.53401 -0.00651604 0.0146367 0.0110388
36 2 6.81923 4.6498 10.2291 0.0268667 0.0114355 -0.0242946
37 1 9.04542 12.2488 10.2462 0.00148152 0.000631132 0.00360138
38 2 9.91159 12.193 8.61667 -0.0168267 0.0281047 -0.00292626
39 2 9.44628 11.6916 10.9663 0.00892257 -0.0157867 -0.0169742
40 1 12.4898 13.0148 5.34582 0.00226441 -0.000476529 0.00165744
41 2 4.79401 5.25045 5.48708 0.00797471 0.00168839 0.0131495
42 2 11.5773 13.166 5.15667 -0.0189265 0.00596336 0.0120779
43 1 5.26397 5.87551 4.90591 0.00264936 0.000711825 -0.000584329
44 2 12.3832 7.89275 4.69825 0.00102308 -0.0218953 -0.00483117
45 2 6.71008 4.11938 4.22008 -0.00839733 -0.0187573 0.0180217
46 1 10.206 11.9484 7.66894 0.00829317 0.00161652 0.00152891
47 2 9.29627 11.7212 7.17674 0.0271647 -0.00542144 0.00491021
48 2 10.7263 10.6134 7.82783 -0.0148224 -0.0179431 0.0161029
49 1 9.81699 6.50031 9.01954 8.54579e-05 -0.00152443 -0.00295141
50 2 9.21787 5.74846 9.30219 0.000907741 0.00647401 0.0216623
51 2 9.89403 7.02135 9.77636 -0.00778625 0.0329932 0.0246342
52 1 8.31312 9.81849 4.88445 -0.00101562 0.000752433 0.000610781
53 2 8.67314 9.04796 5.32328 0.00662085 0.00125819 -0.0155792
54 2 8.1558 10.5578 5.47965 0.0176028 0.03032 0.0277994
55 1 6.09869 10.9117 2.8569 -0.00503668 -0.00900294 -0.000213136
56 2 6.81443 10.5473 2.38006 0.00356295 -0.0278004 -0.0178316
57 2 5.34465 11.0032 2.16716 0.000183371 -0.0158818 0.00508978
58 1 6.62435 11.2915 9.09058 0.00112986 -0.00101523 -0.000525712
59 2 4.00271 13.2813 7.88865 0.00201658 -0.0268004 0.00434302
60 2 8.3428 11.6845 9.79729 0.00322966 -0.00316319 -0.0145103
61 1 7.68003 4.86658 6.4741 -0.00110549 -0.00213027 -0.00100971
62 2 7.63121 4.95881 7.37819 0.0335429 0.024779 0.00886633
63 2 6.9358 5.31191 6.15436 -0.01565 0.00244566 0.0153656
64 1 4.34961 12.3572 8.0414 -0.000622433 -2.31319e-05 -0.0039042
65 2 4.4415 11.9458 7.20291 -0.0200834 0.00975521 -0.00144341
66 2 12.5865 13.3502 6.22948 0.00949528 -0.0271813 -0.0115416
67 1 10.8958 9.4851 8.04105 -0.00287873 0.00816748 0.00212208
68 2 11.7983 9.21318 7.29114 0.0178251 0.00165307 -0.0225118
69 2 11.457 9.52562 8.90573 -0.0166295 0.0111792 0.0140066
70 1 9.82382 13.29 4.2766 0.00224548 -0.00150082 0.0049879
71 2 10.1593 13.193 3.3643 -0.0182036 0.0172498 0.00605544
72 2 8.89475 13.5569 4.16477 0.0188983 0.0153614 -0.0059327
73 1 9.24565 7.53447 6.30853 0.00368568 0.00111205 0.00363494
74 2 8.61935 6.82349 6.3767 0.0230697 0.0166492 -0.00290313
75 2 9.7557 7.42596 7.10001 -0.0328741 -0.0162483 -0.000277817
76 1 12.2589 5.77723 9.67412 -0.00536762 -0.00761689 0.00204625
77 2 11.4885 6.07025 9.14092 0.0205687 0.0189601 0.0316278
78 2 3.56738 6.71564 10.9023 -0.0149048 -0.00433373 0.0180538
79 1 12.2878 9.47429 10.2763 -0.00178726 0.00454085 0.000185312
80 2 12.4746 8.55353 10.5293 -0.00797336 0.0133302 -0.00708881