ITEM: TIMESTEP
0
ITEM: NUMBER OF ATOMS
96
ITEM: BOX BOUNDS pp pp pp
2.9236100000000000e+00 1.2773600000000000e+01
4.0306300000000004e+00 1.3880599999999999e+01
2.1372399999999998e+00 1.1987200000000000e+01
ITEM: ATOMS id type x y z vx vy vz
1 1 7.20265 13.6737 3.46415 0.000929466 0.00147657 0.00550101
2 2 6.80312 12.7811 3.39842 -0.0180203 -0.029617 -0.00423704
3 2 12.2986 13.2793 11.3836 -0.0158121 -0.0034668 -0.00094779
4 1 3.96852 12.1752 10.9251 -0.0033582 -0.000992898 0.00131696
5 2 3.4379 11.3282 10.929 -0.0184923 -0.0061327 -0.0287321
6 2 4.52735 12.0906 10.1302 0.0338786 0.0224389 0.0146016
7 1 12.4978 7.18907 3.9984 0.00174471 -0.00196811 0.00639072
8 2 11.6184 6.6987 3.92462 0.0215443 0.011253 0.0112271
9 2 7.83939 8.42175 7.47827 -0.0146557 -0.0073801 0.0470075
10 1 6.98484 8.66257 8.03782 -0.00315966 0.0033119 0.00282909
11 2 6.19193 8.28255 7.6255 -0.00184834 -0.012023 -0.0256425
12 2 6.51866 10.377 8.86046 0.00680194 0.0178796 0.0200266
13 1 6.87912 8.30479 10.9285 0.00147298 0.00014934 -0.000406201
14 2 7.05219 8.26089 9.95797 -0.0050513 -0.00287688 0.0261927
15 2 6.0507 7.78529 11.012 -0.00646881 0.0341591 -0.0160727
16 1 9.39037 7.61371 11.4258 -0.000932558 -0.00364251 -0.00477493
17 2 9.6922 7.25126 2.39855 -0.00895514 0.00157886 0.00904917
18 2 8.39762 7.71093 11.5321 -0.0135703 0.0153637 0.00661781
19 1 4.02516 7.346 11.5304 0.000754671 -0.0048411 -0.00395291
20 2 3.61467 7.1461 2.60218 -0.0167933 -0.0147125 -0.0187984
21 2 11.559 9.64618 10.8883 0.0146039 0.00559823 0.0173047
22 1 9.77484 10.237 2.28422 -0.00234964 -0.00513543 0.00584584
23 2 9.18311 10.3056 3.07487 0.0103942 -0.00770316 -0.00584504
24 2 9.62506 9.34408 11.7046 0.00404953 -0.0293064 0.00671646
25 1 12.6683 8.81077 6.1757 0.000541513 0.00720648 -0.00361089
26 2 3.28416 9.63868 6.05196 0.0263025 -0.0148073 -0.0185458
27 2 4.57785 6.2323 4.26894 0.00739495 -0.0111212 0.02744
28 1 10.0683 6.19191 4.08383 0.00339306 -0.000737219 0.00301188
29 2 10.1653 5.22349 4.40453 -0.0307348 0.00251339 0.00378935
30 2 9.57216 6.75395 4.69328 0.0167562 0.00661753 0.0161965
31 1 4.56215 10.9984 5.44088 -0.0011633 0.00150212 -0.00300952
32 2 3.76341 11.3756 5.12036 0.0172816 0.0217313 0.000950523
33 2 5.04765 10.8145 4.63715 -0.0036743 0.00482797 -0.0182372
34 1 7.34124 4.57808 9.38563 -0.00186058 0.000165196 -0.00261341
35 2 8.05074 13.7462 9.51921 -0.0109186 -0.0070408 -0.00375737
36 2 6.77433 4.62491 10.2657 -0.0142794 -0.0136547 0.00711908
37 1 9.04288 12.2471 10.2385 -0.000908912 -0.000954227 -0.00400834
38 2 9.94623 12.1312 8.61673 0.0163107 -0.0328114 -0.00127186
39 2 9.41681 11.719 10.9915 -0.019921 0.0115322 0.00857423
40 1 12.4864 13.0154 5.3428 -0.00102273 0.000265764 -0.00102887
41 2 4.76979 5.25493 5.44967 -0.0164006 0.00486032 -0.0223609
42 2 11.5936 13.1542 5.12401 -0.00399573 -0.00547319 -0.0205754
43 1 5.25801 5.87442 4.90576 -0.00320258 -0.000370738 -0.000690681
44 2 12.385 7.92992 4.70869 0.00323892 0.0136821 0.00455257
45 2 6.72465 4.17345 4.19916 0.00532909 0.0340241 -0.00272405
46 1 10.1888 11.9469 7.66628 -0.00873339 -5.97731e-05 -0.00123394
47 2 9.24884 11.735 7.16926 -0.0197678 0.00779788 -0.00189954
48 2 10.7568 10.6445 7.79497 0.0150986 0.0119813 -0.016247
49 1 9.81621 6.50043 9.02228 -0.000570288 -0.00142756 -0.000543194
50 2 9.22066 5.74575 9.25381 0.00248878 0.00247639 -0.025395
51 2 9.91207 6.98665 9.76999 0.0103876 -0.000253525 0.0217913
52 1 8.31529 9.81653 4.88096 0.00129647 -0.00161338 -0.00309397
53 2 8.66071 9.05065 5.3663 -0.00607107 0.00386205 0.0264348
54 2 8.1201 10.5014 5.44168 -0.0199537 -0.0197132 -0.00585086
55 1 6.10582 10.9306 2.85679 0.00205837 0.010027 -6.12888e-05
56 2 6.81606 10.5922 2.40183 0.00832915 0.0156215 0.00189595
57 2 5.37766 11.0341 2.18008 0.0307212 0.0151896 0.015756
58 1 6.62264 11.2934 9.09146 -0.000572648 0.00139557 0.000440261
59 2 4.00761 13.3191 7.87578 0.00834575 0.00703662 -0.00826762
60 2 8.34601 11.698 9.8417 0.00369999 0.00821222 0.0277309
61 1 7.68415 4.86999 6.47413 0.00286729 0.0014331 -0.000746626
62 2 7.55975 4.91145 7.40708 -0.0382929 -0.0229131 0.0327077
63 2 6.93919 5.32043 6.10907 -0.00958252 0.00931829 -0.0282892
64 1 4.3503 12.3586 8.0502 6.2472e-05 0.00144105 0.00462498
65 2 4.47984 11.925 7.18781 0.0173956 -0.00838905 -0.0122276
66 2 12.5733 13.4079 6.25276 -0.00456239 0.0284155 0.00649953
67 1 10.9019 9.46748 8.03583 0.00327418 -0.00928859 -0.00305796
68 2 11.7763 9.19508 7.29039 -0.00444771 -0.0155424 -0.0227614
69 2 11.4927 9.50358 8.9004 0.0177684 -0.0104605 0.00773692
70 1 9.81994 13.2935 4.26624 -0.0016804 0.00202707 -0.00536091
71 2 10.19 13.1625 3.35996 0.0106139 -0.0125875 0.00264542
72 2 8.85919 13.523 4.17281 -0.014563 -0.0192095 0.000767643
73 1 9.23762 7.53237 6.30107 -0.00437509 -0.00126177 -0.00353852
74 2 8.57576 6.7854 6.38672 -0.0154283 -0.0169085 0.00770238
75 2 9.82199 7.45761 7.10527 0.0286292 0.0148641 -5.88377e-05
76 1 12.2696 5.79258 9.66949 0.00492992 0.00770661 -0.00274719
77 2 11.4429 6.03949 9.08274 -0.0197118 -0.0139717 -0.022071
78 2 3.60235 6.7362 10.8838 0.0186353 0.0142044 -0.00247149
79 1 12.2914 9.46508 10.2771 0.00185628 -0.00476485 0.00101768
80 2 12.4975 8.53135 10.5385 0.0142952 -0.00704866 0.00166958
81 2 5.83629 11.8234 8.74499 -0.00505387 0.01331 -0.00477647
82 1 5.73314 5.11401 11.4608 0.00430743 -0.00552712 -0.0012333
83 2 6.06969 4.64967 2.39566 -0.0173275 0.0130329 0.00188453
84 2 5.46177 6.03356 11.6748 0.0207853 -0.00745903 0.000659272
85 1 11.4596 13.7767 11.3718 -0.00354063 -0.00497274 0.00435618
86 2 10.8758 13.1161 10.9086 0.0176922 -0.00276169 -0.00868522
87 2 11.9417 4.97792 10.2084 0.00868945 0.0202772 0.0339922
88 1 7.76698 11.9945 6.729 0.00214714 0.00556196 0.0019244
89 2 7.37881 11.8493 7.70867 -0.00945931 0.0114363 0.00232727
90 2 7.9218 12.9195 6.49991 -0.00295852 0.00451763 0.0136049
91 1 4.83244 7.2824 7.04273 -0.00108451 3.70613e-05 0.00105097
92 2 3.92496 7.90454 6.93928 -0.00972917 0.00469308 0.00693121
93 2 4.18289 5.79223 7.30838 0.00474978 0.00761262 -0.0124229
94 1 3.43579 5.11897 7.28336 0.00448723 -0.00132023 0.00188625
95 2 12.7106 5.28734 8.03746 0.0138376 -0.0114291 0.0138328
96 2 5.0894 7.09444 6.13059 0.0184178 0.0269387 -0.00720508
ITEM: TIMESTEP
1
ITEM: NUMBER OF ATOMS
96
ITEM: BOX BOUNDS pp pp pp
2.9236100000000000e+00 1.2773600000000000e+01
4.0306300000000004e+00 1.3880599999999999e+01
2.1372399999999998e+00 1.1987200000000000e+01
ITEM: ATOMS id type x y z vx vy vz
1 1 7.20311 13.6744 3.46688 0.00086961 0.00119583 0.00541895
2 2 6.79436 12.7662 3.39608 -0.0165983 -0.028566 -0.00481562
3 2 12.2911 13.2778 11.3833 -0.0135885 -0.00267429 -1.69362e-05
4 1 3.96681 12.1746 10.9258 -0.00346881 -0.00145808 0.00130402
5 2 3.42965 11.3264 10.9142 -0.0141601 -0.000843792 -0.0305186
6 2 4.54353 12.1019 10.1379 0.030488 0.0225588 0.016556
7 1 12.4987 7.18815 4.00165 0.00195393 -0.00167532 0.00663496
8 2 11.6293 6.7046 3.93039 0.0213588 0.0119359 0.01176
9 2 7.82916 8.41845 7.50305 -0.0253137 -0.00602863 0.0514564
10 1 6.98343 8.66423 8.0392 -0.00258255 0.00332303 0.00271385
11 2 6.19134 8.27614 7.61226 -0.000157137 -0.0133477 -0.0269235
12 2 6.52182 10.3847 8.86982 0.00566726 0.0124475 0.0171918
13 1 6.87982 8.30483 10.9282 0.00132005 2.34152e-05 -0.000532908
14 2 7.04958 8.25976 9.97153 -0.00502993 -0.00163637 0.026884
15 2 6.04785 7.80285 11.0042 -0.00546618 0.0357066 -0.014913
16 1 9.38989 7.61195 11.4234 -0.00102258 -0.00339943 -0.00472143
17 2 9.68812 7.25137 2.40395 -0.00743349 -0.00099616 0.0121965
18 2 8.39067 7.71862 11.535 -0.0136649 0.015279 0.00505756
19 1 4.02554 7.34352 11.5285 0.00079567 -0.00502456 -0.00380306
20 2 3.60643 7.13912 2.59134 -0.0161642 -0.0131966 -0.024212
21 2 11.5662 9.6492 10.8969 0.0142267 0.00636255 0.0171426
22 1 9.77365 10.2344 2.28714 -0.0024001 -0.00511308 0.00577111
23 2 9.18887 10.3011 3.07129 0.0122386 -0.0104145 -0.00793927
24 2 9.62686 9.32991 11.7088 0.00328123 -0.0268585 0.01011
25 1 12.6686 8.81438 6.17403 0.000608292 0.00718945 -0.00306768
26 2 3.29723 9.63049 6.04256 0.0259649 -0.0176114 -0.0189792
27 2 4.58206 6.2261 4.28388 0.0087926 -0.0130719 0.0313721
28 1 10.07 6.19144 4.08525 0.00340187 -0.00110672 0.00269733
29 2 10.1492 5.22592 4.40637 -0.0336548 0.00694239 0.00353786
30 2 9.58063 6.7569 4.70245 0.0171626 0.00518627 0.0203337
31 1 4.5616 10.9991 5.43942 -0.00101556 0.00125224 -0.0028468
32 2 3.77089 11.3875 5.12064 0.0123669 0.0262001 0.000189554
33 2 5.04646 10.8169 4.62764 -0.0012503 0.00461542 -0.0193673
34 1 7.34034 4.57814 9.38439 -0.00176031 9.00215e-05 -0.00234742
35 2 8.04396 13.7434 9.51778 -0.0160211 -0.00426072 -0.00200976
36 2 6.7685 4.61794 10.2675 -0.00885389 -0.0141561 -0.000345598
37 1 9.04249 12.2466 10.2365 -0.000630559 -0.000907824 -0.00400437
38 2 9.9541 12.1147 8.61611 0.0149465 -0.0331833 -0.00089614
39 2 9.40631 11.7245 10.9954 -0.0218193 0.0104357 0.00710662
40 1 12.486 13.0155 5.34237 -0.000693854 0.000329102 -0.000652843
41 2 4.76103 5.2575 5.43828 -0.0186576 0.00506405 -0.0227707
42 2 11.5901 13.1515 5.11325 -0.00937469 -0.00523885 -0.0222385
43 1 5.2564 5.87426 4.90535 -0.0031836 -0.000299831 -0.000921588
44 2 12.3869 7.93601 4.71079 0.00458575 0.0105334 0.00377337
45 2 6.72704 4.19116 4.19869 0.00433362 0.0364625 0.000504266
46 1 10.1844 11.9469 7.66567 -0.0086566 0.000194958 -0.0012345
47 2 9.2395 11.7389 7.1686 -0.0174652 0.00780847 -0.000664164
48 2 10.7643 10.6498 7.78695 0.0146357 0.00898885 -0.0157223
49 1 9.81592 6.49955 9.02176 -0.000556665 -0.0020457 -0.00148823
50 2 9.22191 5.74733 9.24111 0.00233164 0.00364656 -0.0251626
51 2 9.91739 6.98853 9.78399 0.0106621 0.00690302 0.0332287
52 1 8.31598 9.81561 4.87923 0.0014731 -0.00209111 -0.00379588
53 2 8.65766 9.0529 5.38 -0.00620149 0.00518664 0.0280688
54 2 8.10968 10.4931 5.44071 -0.0219097 -0.0130951 0.00198213
55 1 6.10668 10.9357 2.85679 0.00143672 0.0103276 0.000111017
56 2 6.82136 10.5991 2.40154 0.0128124 0.0119353 -0.00296367
57 2 5.39438 11.0417 2.18874 0.0351502 0.0152956 0.0180093
58 1 6.62239 11.2942 9.09169 -0.000445801 0.00187107 0.000481102
59 2 4.01262 13.3209 7.87145 0.0116803 -6.02411e-05 -0.00899402
60 2 8.34776 11.702 9.85597 0.00260216 0.00752679 0.0288384
61 1 7.68565 4.8707 6.4737 0.00306864 0.001435 -0.000877737
62 2 7.54029 4.90005 7.42482 -0.0393811 -0.0226847 0.0364368
63 2 6.93347 5.32542 6.09452 -0.012301 0.0100237 -0.0293067
64 1 4.3503 12.3594 8.05251 -5.1609e-05 0.00179832 0.00456052
65 2 4.48822 11.9213 7.1816 0.0159932 -0.00594599 -0.0118613
66 2 12.5712 13.4218 6.25486 -0.00411577 0.0271114 0.00133644
67 1 10.9036 9.4628 8.03425 0.00339676 -0.00937011 -0.00323536
68 2 11.7749 9.1866 7.27635 -0.00124522 -0.0181995 -0.0329411
69 2 11.5014 9.49845 8.90527 0.0167905 -0.0101122 0.0109941
70 1 9.81913 13.2945 4.26354 -0.00157414 0.00216052 -0.00541759
71 2 10.1946 13.1566 3.36191 0.00755183 -0.0109912 0.00504006
72 2 8.85248 13.5131 4.17267 -0.0121744 -0.0205469 -0.0014812
73 1 9.23539 7.53169 6.29935 -0.00455574 -0.00149238 -0.00330834
74 2 8.5693 6.77763 6.39095 -0.00992844 -0.0137335 0.00925668
75 2 9.83528 7.46487 7.10443 0.0239725 0.0141155 -0.00379588
76 1 12.272 5.79643 9.66805 0.00449958 0.00769316 -0.00303736
77 2 11.4339 6.03249 9.07303 -0.0156334 -0.0142128 -0.0162114
78 2 3.61163 6.74351 10.8831 0.0181319 0.0144881 -0.00100696
79 1 12.2923 9.46267 10.2777 0.00191326 -0.00486202 0.00135497
80 2 12.5049 8.52846 10.5389 0.0153536 -0.00443238 0.000113687
81 2 5.83349 11.8296 8.74266 -0.00597615 0.0111565 -0.00446158
82 1 5.73525 5.11127 11.4601 0.00411806 -0.0054301 -0.00150882
83 2 6.06135 4.6564 2.39731 -0.0157819 0.0134633 0.00508218
84 2 5.47207 6.02962 11.6753 0.0202971 -0.00795087 0.00141483
85 1 11.4578 13.7741 11.374 -0.00369078 -0.00535635 0.0042576
86 2 10.8847 13.1158 10.9046 0.0174117 0.00122924 -0.00740846
87 2 11.9464 4.98862 10.2254 0.0100329 0.022812 0.0336355
88 1 7.76802 11.9972 6.73003 0.00197995 0.00506863 0.00218164
89 2 7.37454 11.8558 7.7084 -0.00763129 0.0144586 -0.00329943
90 2 7.91982 12.9228 6.5073 -0.00489731 0.00899809 0.0157886
91 1 4.83177 7.28257 7.04333 -0.00160241 0.000639766 0.00130828
92 2 3.92065 7.90669 6.94193 -0.00725118 0.00373712 0.00353131
93 2 4.18527 5.7964 7.30239 0.00462975 0.00893001 -0.0115137
94 1 3.43805 5.11819 7.28424 0.00455133 -0.00179684 0.00163008
95 2 12.7173 5.28202 8.04549 0.0131483 -0.00981796 0.0182218
96 2 5.09914 7.10737 6.1256 0.0202587 0.0248481 -0.012201
ITEM: TIMESTEP
2
ITEM: NUMBER OF ATOMS
96
ITEM: BOX BOUNDS pp pp pp
2.9236100000000000e+00 1.2773600000000000e+01
4.0306300000000004e+00 1.3880599999999999e+01
2.1372399999999998e+00 1.1987200000000000e+01
ITEM: ATOMS id type x y z vx vy vz
1 1 7.20352 13.6749 3.46957 0.000752433 0.00080027 0.00535148
2 2 6.78652 12.7525 3.3936 -0.0143969 -0.0250311 -0.00480919
3 2 12.285 13.2766 11.3836 -0.0104043 -0.00213146 0.00113467
4 1 3.96505 12.1737 10.9264 -0.00356889 -0.00193025 0.00126766
5 2 3.42374 11.3274 10.8985 -0.00932066 0.00481224 -0.0323513
6 2 4.55784 12.1132 10.1468 0.0265257 0.0223834 0.0188498
7 1 12.4998 7.18739 4.00503 0.00223504 -0.00131766 0.00689566
8 2 11.6398 6.71064 3.93638 0.0198904 0.0117813 0.0121434
9 2 7.81408 8.41572 7.52973 -0.0336808 -0.00515825 0.0544398
10 1 6.98226 8.66589 8.04053 -0.00219145 0.0033291 0.00262863
11 2 6.19177 8.2692 7.59858 0.00217122 -0.0141446 -0.0274299
12 2 6.52433 10.3894 8.87765 0.00425056 0.00604217 0.0140256
13 1 6.88044 8.30481 10.928 0.00119374 -5.10768e-05 -0.000526744
14 2 7.04716 8.25925 9.98485 -0.0042855 -0.000420117 0.0252436
15 2 6.04523 7.821 10.9971 -0.00559406 0.0364659 -0.0133118
16 1 9.38935 7.61031 11.4211 -0.0011616 -0.00316334 -0.00459714
17 2 9.68477 7.25026 2.41075 -0.00613891 -0.00327885 0.0144749
18 2 8.38396 7.72621 11.5372 -0.0126554 0.0149674 0.00326557
19 1 4.02596 7.34098 11.5266 0.000877012 -0.00512912 -0.00361768
20 2 3.59851 7.1329 2.57797 -0.0155907 -0.0116679 -0.0287252
21 2 11.5732 9.65254 10.9054 0.0138681 0.00690929 0.016868
22 1 9.77244 10.2319 2.28999 -0.00240983 -0.00517166 0.00560287
23 2 9.19535 10.2952 3.06693 0.0132361 -0.012925 -0.00880859
24 2 9.62834 9.31722 11.7147 0.00275295 -0.0234851 0.0137677
25 1 12.6689 8.81796 6.17263 0.000690269 0.00709605 -0.00255985
26 2 3.31012 9.62107 6.03298 0.025655 -0.019609 -0.0192271
27 2 4.58664 6.21923 4.30031 0.00875879 -0.0137367 0.0332794
28 1 10.0717 6.1908 4.08653 0.00337513 -0.00141938 0.00240981
29 2 10.1316 5.23043 4.40807 -0.0361474 0.0107399 0.00327142
30 2 9.58932 6.75914 4.71361 0.0176763 0.00375397 0.0240879
31 1 4.56113 10.9997 5.43803 -0.000827142 0.000984982 -0.00274581
32 2 3.77578 11.4018 5.12055 0.00722163 0.0307953 -0.000474963
33 2 5.0464 10.8191 4.61778 0.00074807 0.00451898 -0.0195346
34 1 7.33948 4.57817 9.38328 -0.00169398 2.61328e-05 -0.00208406
35 2 8.03472 13.7419 9.5172 -0.0205744 -0.00182264 -0.000357661
36 2 6.76548 4.61075 10.2654 -0.0033159 -0.0144797 -0.00803673
37 1 9.04225 12.2462 10.2345 -0.000297805 -0.000812276 -0.00396289
38 2 9.96118 12.098 8.61583 0.0131356 -0.0332301 2.33352e-05
39 2 9.39499 11.7294 10.9986 -0.0231679 0.00938492 0.00609204
40 1 12.4857 13.0157 5.34215 -0.00042486 0.000430545 -0.000250077
41 2 4.75113 5.25999 5.4269 -0.0209192 0.00455839 -0.0223058
42 2 11.5842 13.149 5.10177 -0.0135359 -0.00508757 -0.0233714
43 1 5.25483 5.87412 4.90484 -0.00306161 -0.000256478 -0.00107297
44 2 12.3896 7.94045 4.71246 0.00597925 0.00715236 0.00284861
45 2 6.72898 4.20991 4.19966 0.00356914 0.0380629 0.00297477
46 1 10.1801 11.9471 7.66505 -0.00849605 0.000376358 -0.00125459
47 2 9.23137 11.7428 7.1686 -0.0149142 0.00754606 0.000724019
48 2 10.7714 10.6535 7.77925 0.0138485 0.005115 -0.0149716
49 1 9.81565 6.49838 9.02079 -0.000471499 -0.00252169 -0.00230433
50 2 9.22299 5.7494 9.22865 0.00183293 0.00447441 -0.0244675
51 2 9.92273 6.99355 9.80322 0.0103972 0.0120811 0.0422648
52 1 8.31676 9.81444 4.87716 0.0016733 -0.00259135 -0.00443445
53 2 8.65451 9.05584 5.39437 -0.00648206 0.00665358 0.0290679
54 2 8.09819 10.4883 5.44366 -0.024079 -0.00632603 0.00945755
55 1 6.10726 10.9409 2.8569 0.00098225 0.0106039 0.000382538
56 2 6.82887 10.6041 2.39887 0.0168732 0.00850003 -0.00743195
57 2 5.41281 11.0494 2.19809 0.0374301 0.0156517 0.0183408
58 1 6.62219 11.2953 9.09194 -0.000341137 0.0024471 0.000532105
59 2 4.01929 13.319 7.86679 0.0149249 -0.00701563 -0.00960733
60 2 8.34861 11.7055 9.87054 0.000154462 0.00607061 0.0289088
61 1 7.68722 4.87143 6.47325 0.00311515 0.00151782 -0.000840025
62 2 7.52037 4.88877 7.44352 -0.040035 -0.0224427 0.0365023
63 2 6.92689 5.33045 6.07976 -0.0130254 0.00947509 -0.0290754
64 1 4.35025 12.3604 8.05476 -0.0001358 0.00210584 0.00440581
65 2 4.49583 11.9191 7.17595 0.0143409 -0.00292337 -0.0101414
66 2 12.5692 13.435 6.2541 -0.00396041 0.0253848 -0.00475864
67 1 10.9053 9.45811 8.03259 0.00352351 -0.00932494 -0.00338039
68 2 11.7751 9.17688 7.25745 0.0019616 -0.020445 -0.0421443
69 2 11.5095 9.49347 8.91139 0.0152797 -0.00993091 0.012597
70 1 9.81837 13.2957 4.26082 -0.0014781 0.00228645 -0.00543867
71 2 10.1976 13.1515 3.365 0.00438398 -0.00935713 0.00705475
72 2 8.84702 13.5025 4.17133 -0.00966699 -0.0218992 -0.00396409
73 1 9.23306 7.53088 6.29776 -0.00472737 -0.00176434 -0.00303307
74 2 8.56583 6.77167 6.39598 -0.00368237 -0.00985725 0.0108597
75 2 9.84596 7.47173 7.10147 0.0183982 0.0132374 -0.00834176
76 1 12.2741 5.80027 9.66645 0.00398682 0.00765557 -0.00334843
77 2 11.4273 6.02528 9.06653 -0.0107308 -0.0146877 -0.00944937
78 2 3.62048 6.75069 10.8828 0.0169746 0.0136679 -0.000960097
79 1 12.2933 9.46022 10.2785 0.00198668 -0.0049454 0.00170064
80 2 12.5129 8.52692 10.5386 0.016207 -0.00179251 -0.00137597
81 2 5.83031 11.8346 8.74053 -0.00653505 0.00852145 -0.003995
82 1 5.73726 5.10858 11.4593 0.00391243 -0.00533041 -0.00180114
83 2 6.05391 4.66313 2.40074 -0.0138111 0.0131091 0.00883898
84 2 5.48207 6.02561 11.6762 0.019607 -0.00777469 0.00193485
85 1 11.4559 13.7713 11.3761 -0.00384807 -0.00568207 0.00416773
86 2 10.8932 13.1173 10.9012 0.0162858 0.00478247 -0.0065449
87 2 11.9517 5.00073 10.242 0.0114336 0.0258351 0.0326721
88 1 7.76896 11.9996 6.73118 0.00176873 0.00458425 0.00242555
89 2 7.37118 11.8638 7.70537 -0.00585905 0.0171436 -0.0085832
90 2 7.9169 12.9285 6.5157 -0.0067173 0.0138298 0.0176352
91 1 4.83084 7.28304 7.04404 -0.00210888 0.00125231 0.00148311
92 2 3.91771 7.90828 6.94281 -0.00429061 0.00244795 -6.64913e-05
93 2 4.18752 5.80116 7.29687 0.00415312 0.00992735 -0.0105568
94 1 3.44034 5.11717 7.28499 0.00460666 -0.00226403 0.00139117
95 2 12.7237 5.27752 8.05568 0.0128481 -0.00819541 0.0223242
96 2 5.10966 7.11929 6.11839 0.0214548 0.0228891 -0.0159156
ITEM: TIMESTEP
3
ITEM: NUMBER OF ATOMS
96
ITEM: BOX BOUNDS pp pp pp
2.9236100000000000e+00 1.2773600000000000e+01
4.0306300000000004e+00 1.3880599999999999e+01
2.1372399999999998e+00 1.1987200000000000e+01
ITEM: ATOMS id type x y z vx vy vz
1 1 7.20386 13.6752 3.47223 0.000580287 0.000326001 0.00530811
2 2 6.77996 12.7412 3.39128 -0.0115996 -0.0193907 -0.00422063
3 2 12.2807 13.2757 11.3845 -0.00649125 -0.0017982 0.00245918
4 1 3.96324 12.1727 10.927 -0.00365229 -0.00238148 0.00122116
5 2 3.42033 11.3312 10.8818 -0.00430038 0.0103873 -0.0341745
6 2 4.57005 12.1243 10.1568 0.02221 0.021934 0.021239
7 1 12.501 7.18683 4.00855 0.0025829 -0.000906276 0.00716509
8 2 11.6492 6.71638 3.94253 0.017207 0.010826 0.0123878
9 2 7.79548 8.41329 7.55749 -0.0389783 -0.00496921 0.0556678
10 1 6.98123 8.66756 8.04183 -0.00202353 0.00334625 0.00259397
11 2 6.19351 8.262 7.58483 0.00493883 -0.0144237 -0.0271595
12 2 6.52607 10.3908 8.88384 0.00265656 -0.000695287 0.0107054
13 1 6.88101 8.30478 10.9277 0.00109727 -7.36874e-05 -0.000387211
14 2 7.04529 8.25934 9.99677 -0.00285193 0.000737159 0.0213119
15 2 6.04226 7.83932 10.9909 -0.00687949 0.0364701 -0.0113258
16 1 9.38873 7.60879 11.4188 -0.00133566 -0.0029442 -0.00439623
17 2 9.68198 7.2481 2.41843 -0.00516701 -0.00519905 0.0156774
18 2 8.37801 7.73358 11.5383 -0.01064 0.0144047 0.00128064
19 1 4.02642 7.33839 11.5248 0.00100512 -0.00515357 -0.00341336
20 2 3.59084 7.12745 2.56261 -0.0151865 -0.0101892 -0.032054
21 2 11.5801 9.6561 10.9138 0.0135381 0.00721007 0.0164912
22 1 9.77124 10.2293 2.29274 -0.00237198 -0.00529632 0.00534416
23 2 9.2021 10.2881 3.06248 0.0132857 -0.0151336 -0.00825402
24 2 9.62962 9.30642 11.7225 0.00246823 -0.0194457 0.0174568
25 1 12.6693 8.82147 6.17147 0.000777671 0.00692493 -0.00208948
26 2 3.32288 9.61088 6.02333 0.0254305 -0.0206534 -0.0192775
27 2 4.59082 6.21237 4.31716 0.00708262 -0.0129442 0.0329255
28 1 10.0734 6.19002 4.08766 0.00330725 -0.00165821 0.00215313
29 2 10.113 5.23666 4.40964 -0.0381692 0.0136491 0.00302986
30 2 9.59831 6.76066 4.72654 0.0183475 0.00234344 0.0273322
31 1 4.56077 11.0001 5.43668 -0.000629659 0.000716957 -0.00272486
32 2 3.77811 11.4183 5.12017 0.0024483 0.0352266 -0.000857681
33 2 5.04721 10.8214 4.6081 0.00219542 0.00458706 -0.0186485
34 1 7.33865 4.57817 9.3823 -0.00165891 -1.06494e-05 -0.00185594
35 2 8.02339 13.7416 9.51742 -0.0241797 -6.7443e-05 0.00115762
36 2 6.76519 4.60346 10.2594 0.00188177 -0.0145605 -0.0153849
37 1 9.04219 12.2458 10.2325 7.88322e-05 -0.000679764 -0.00389108
38 2 9.96724 12.0814 8.61614 0.0109423 -0.0329924 0.00137321
39 2 9.38314 11.7339 11.0015 -0.0239174 0.00842227 0.0055583
40 1 12.4856 13.016 5.34212 -0.000237579 0.000558978 0.000143929
41 2 4.74011 5.26206 5.41597 -0.0230968 0.00337543 -0.0209987
42 2 11.5766 13.1464 5.08988 -0.0161464 -0.00505433 -0.023857
43 1 5.25334 5.874 4.90428 -0.0028285 -0.000252097 -0.00112679
44 2 12.3929 7.94316 4.71364 0.00737205 0.0036535 0.00184084
45 2 6.73061 4.22923 4.20166 0.00313696 0.0386588 0.00450711
46 1 10.1759 11.9473 7.66441 -0.00825256 0.000478196 -0.00128474
47 2 9.22459 11.7465 7.16932 -0.0120775 0.00702316 0.00225254
48 2 10.7781 10.655 7.77198 0.0127452 0.000149893 -0.0139397
49 1 9.81545 6.49702 9.01946 -0.000314322 -0.00283335 -0.00293842
50 2 9.22374 5.7518 9.21664 0.00104899 0.00503256 -0.023353
51 2 9.92779 7.00061 9.82625 0.00946195 0.0148763 0.0481724
52 1 8.31765 9.81302 4.8748 0.0018795 -0.00306546 -0.00495778
53 2 8.65118 9.05955 5.40907 -0.00692231 0.00831983 0.0293397
54 2 8.0856 10.4868 5.45017 -0.0261822 -0.000220463 0.0158444
55 1 6.10766 10.9463 2.85717 0.000738925 0.0108355 0.000744091
56 2 6.83824 10.6076 2.39411 0.0200221 0.00554563 -0.0111529
57 2 5.43181 11.0573 2.20709 0.0373478 0.0163241 0.0165587
58 1 6.62205 11.2966 9.09222 -0.000265794 0.00307944 0.000584705
59 2 4.02754 13.3138 7.86184 0.0178829 -0.0132975 -0.0101185
60 2 8.34791 11.7081 9.88488 -0.003524 0.00400206 0.0280077
61 1 7.68877 4.87221 6.47286 0.00300442 0.00166983 -0.000642832
62 2 7.50025 4.87761 7.46133 -0.0401129 -0.0220907 0.0330568
63 2 6.92044 5.3349 6.06544 -0.011836 0.00772162 -0.0276034
64 1 4.35016 12.3615 8.05691 -0.000184296 0.00234314 0.00417767
65 2 4.50256 11.9184 7.17146 0.0125002 0.000440778 -0.00734505
66 2 12.5672 13.4472 6.2501 -0.00404944 0.0234193 -0.0113294
67 1 10.9071 9.45348 8.03087 0.00365247 -0.00913448 -0.00349369
68 2 11.7768 9.16615 7.23421 0.00519168 -0.0221808 -0.0502345
69 2 11.5167 9.48852 8.91787 0.0132105 -0.0099475 0.0123541
70 1 9.81765 13.2968 4.2581 -0.00139011 0.0024018 -0.00541535
71 2 10.199 13.1472 3.36897 0.00129698 -0.00775653 0.00847066
72 2 8.84281 13.4912 4.1687 -0.00723604 -0.0232047 -0.00659206
73 1 9.23066 7.52992 6.29632 -0.00488559 -0.00205486 -0.0027372
74 2 8.56562 6.76777 6.40181 0.00289406 -0.0056588 0.0124878
75 2 9.85368 7.47811 7.09609 0.0122798 0.012244 -0.0132632
76 1 12.276 5.80409 9.6647 0.00342555 0.0075933 -0.00366255
77 2 11.4232 6.0178 9.06358 -0.00549901 -0.0151786 -0.0021956
78 2 3.6286 6.75718 10.8821 0.0152318 0.0117948 -0.00236063
79 1 12.2943 9.45773 10.2794 0.00207501 -0.00500158 0.0020502
80 2 12.5211 8.52667 10.5376 0.0168736 0.000686298 -0.00272642
81 2 5.82696 11.8381 8.73867 -0.00666315 0.00541597 -0.00336024
82 1 5.73916 5.10594 11.4583 0.00369876 -0.00523049 -0.00208554
83 2 6.04754 4.66951 2.40615 -0.0115521 0.0121334 0.0128243
84 2 5.49167 6.02184 11.6773 0.0187339 -0.00704408 0.00218103
85 1 11.4539 13.7684 11.3781 -0.00399691 -0.00594133 0.00409316
86 2 10.901 13.1205 10.8981 0.014306 0.00774227 -0.00617837
87 2 11.9578 5.01445 10.2581 0.0128416 0.0291028 0.0312415
88 1 7.76979 12.0017 6.73245 0.00152009 0.00413403 0.00263403
89 2 7.36868 11.873 7.69982 -0.00428232 0.0193954 -0.0132155
90 2 7.9131 12.9367 6.52493 -0.00841995 0.0187592 0.0191234
91 1 4.82966 7.28382 7.04481 -0.00258727 0.00186538 0.00155151
92 2 3.91636 7.90914 6.94186 -0.00093951 0.000870556 -0.00372981
93 2 4.18943 5.80633 7.29183 0.00325796 0.0105254 -0.00958006
94 1 3.44266 5.11593 7.28563 0.00464569 -0.00270803 0.00118792
95 2 12.7302 5.27382 8.06781 0.0131239 -0.00666265 0.0258298
96 2 5.1206 7.13026 6.10969 0.0219066 0.0210274 -0.0180365
ITEM: TIMESTEP
4
ITEM: NUMBER OF ATOMS
96
ITEM: BOX BOUNDS pp pp pp
2.9236100000000000e+00 1.2773600000000000e+01
4.0306300000000004e+00 1.3880599999999999e+01
2.1372399999999998e+00 1.1987200000000000e+01
ITEM: ATOMS id type x y z vx vy vz
1 1 7.2041 13.6752 3.47488 0.000359697 -0.000189738 0.00529359
2 2 6.77492 12.7331 3.38938 -0.00841333 -0.0121234 -0.00309128
3 2 12.2785 13.2748 11.386 -0.00215079 -0.00159776 0.00390014
4 1 3.9614 12.1714 10.9276 -0.00371434 -0.00278495 0.00118039
5 2 3.41944 11.3377 10.8643 0.000562824 0.0154356 -0.0359584
6 2 4.58005 12.1351 10.168 0.0177907 0.021249 0.0234691
7 1 12.5023 7.18649 4.0122 0.00298763 -0.000456656 0.00743421
8 2 11.657 6.72146 3.94877 0.0134667 0.00916469 0.0125156
9 2 7.7751 8.41075 7.58539 -0.0405422 -0.00565359 0.0549605
10 1 6.98023 8.66924 8.04313 -0.00210645 0.00339118 0.00262745
11 2 6.19671 8.25478 7.57142 0.00792407 -0.0142128 -0.0261475
12 2 6.52698 10.3888 8.88836 0.000994072 -0.00708732 0.00740683
13 1 6.88154 8.30474 10.9276 0.00102909 -4.95108e-05 -0.000129112
14 2 7.04431 8.25999 10.0062 -0.000811683 0.00182295 0.015352
15 2 6.03835 7.85747 10.9858 -0.00923873 0.0358215 -0.00901914
16 1 9.38801 7.60737 11.4167 -0.0015283 -0.00275098 -0.00412015
17 2 9.6796 7.24506 2.42642 -0.00456341 -0.00673059 0.0157058
18 2 8.37332 7.74061 11.5384 -0.00780449 0.0135878 -0.000850065
19 1 4.02696 7.33582 11.5232 0.00118174 -0.00510439 -0.00320979
20 2 3.58332 7.12271 2.54591 -0.0150569 -0.00881597 -0.0340089
21 2 11.5868 9.65975 10.9219 0.0132505 0.00724441 0.0160189
22 1 9.77007 10.2266 2.29534 -0.00228478 -0.00546888 0.00500497
23 2 9.20863 10.2801 3.05868 0.0123693 -0.0169574 -0.00619154
24 2 9.63081 9.29778 11.7322 0.00242703 -0.015013 0.0209485
25 1 12.6697 8.82488 6.17054 0.00086058 0.00667937 -0.00165878
26 2 3.33556 9.60042 6.0137 0.0253166 -0.0206575 -0.0191116
27 2 4.59373 6.20628 4.33324 0.00367009 -0.0105167 0.0301283
28 1 10.075 6.18915 4.08868 0.00319523 -0.00181106 0.00193137
29 2 10.0935 5.24408 4.4111 -0.0397042 0.0154583 0.00283273
30 2 9.60767 6.76148 4.74095 0.0192174 0.000989268 0.0299485
31 1 4.5605 11.0004 5.43531 -0.000454288 0.000466123 -0.00279428
32 2 3.77823 11.437 5.11969 -0.00142278 0.0392006 -0.000799881
33 2 5.0486 10.8237 4.59913 0.00303345 0.00484383 -0.0167218
34 1 7.33782 4.57816 9.38143 -0.00164935 -7.38764e-06 -0.00169116
35 2 8.01054 13.7419 9.51836 -0.0265061 0.00071833 0.00248716
36 2 6.76736 4.59619 10.25 0.00629373 -0.0143389 -0.0218475
37 1 9.04233 12.2455 10.2306 0.000482199 -0.000528819 -0.00379789
38 2 9.97212 12.065 8.61721 0.00843737 -0.0325013 0.0030049
39 2 9.37107 11.7379 11.0042 -0.0240557 0.00759148 0.00548496
40 1 12.4855 13.0163 5.34229 -0.000143612 0.000700431 0.000495369
41 2 4.72804 5.26337 5.4059 -0.0250615 0.00150874 -0.0188249
42 2 11.5681 13.1439 5.07791 -0.0170491 -0.00515374 -0.0236363
43 1 5.252 5.87387 4.90371 -0.00248652 -0.000296203 -0.00107233
44 2 12.397 7.94411 4.7143 0.00871249 0.00015411 0.000808807
45 2 6.73212 4.24857 4.20417 0.00308529 0.0381685 0.00503399
46 1 10.1719 11.9476 7.66376 -0.00792741 0.000498503 -0.00131219
47 2 9.2193 11.7498 7.17085 -0.00893789 0.00627075 0.00390435
48 2 10.7842 10.6536 7.76531 0.011334 -0.00604899 -0.0125611
49 1 9.81534 6.49555 9.01785 -9.04146e-05 -0.00297528 -0.00336027
50 2 9.22404 5.75443 9.20529 3.89504e-05 0.00539316 -0.0218809
51 2 9.93219 7.00843 9.85139 0.00779152 0.0151568 0.0505975
52 1 8.31864 9.81137 4.87221 0.00207279 -0.00347093 -0.00532268
53 2 8.64759 9.06416 5.42371 -0.00751548 0.0102077 0.028821
54 2 8.07201 10.4881 5.45951 -0.0279384 0.0045478 0.0205155
55 1 6.108 10.9518 2.85765 0.00073021 0.0110066 0.00117857
56 2 6.84889 10.6097 2.38771 0.0218859 0.0032459 -0.0138399
57 2 5.45016 11.0657 2.21465 0.0348914 0.017362 0.0126608
58 1 6.62193 11.2984 9.09253 -0.000224357 0.00371925 0.000631504
59 2 4.03717 13.3057 7.85667 0.0203739 -0.0183978 -0.0105451
60 2 8.34509 11.7095 9.89855 -0.00816939 0.00156659 0.0262797
61 1 7.69022 4.87309 6.47261 0.00274783 0.00187389 -0.000307283
62 2 7.48026 4.86667 7.47657 -0.0395333 -0.0215453 0.0265198
63 2 6.91505 5.33818 6.05216 -0.00897291 0.00491504 -0.0250073
64 1 4.35006 12.3627 8.05894 -0.000193978 0.00249331 0.00389703
65 2 4.50833 11.9195 7.1686 0.010549 0.00387891 -0.00380589
66 2 12.5651 13.4584 6.24277 -0.00432121 0.0214224 -0.0178882
67 1 10.9089 9.44898 8.0291 0.00378167 -0.00878702 -0.00357757
68 2 11.7802 9.1547 7.20721 0.00851402 -0.0233612 -0.057114
69 2 11.5227 9.48352 8.92375 0.0105893 -0.0101792 0.0101438
70 1 9.81698 13.2981 4.25541 -0.00130849 0.00250474 -0.00534128
71 2 10.1988 13.1438 3.37347 -0.00153422 -0.00625575 0.0091055
72 2 8.83978 13.4792 4.16474 -0.00504412 -0.0244134 -0.00926958
73 1 9.22818 7.52882 6.29502 -0.00502762 -0.00234061 -0.00244574
74 2 8.56873 6.76601 6.40846 0.00938732 -0.00152458 0.0141326
75 2 9.85824 7.48397 7.08821 0.00601618 0.0111506 -0.0181178
76 1 12.2775 5.80787 9.66279 0.00285206 0.00750865 -0.00396117
77 2 11.4218 6.0101 9.06433 -0.000445632 -0.0154838 0.0051001
78 2 3.63571 6.76248 10.8804 0.013036 0.00902826 -0.00509375
79 1 12.2954 9.45522 10.2805 0.00217522 -0.00501999 0.00239845
80 2 12.5297 8.5276 10.5359 0.0173794 0.00284949 -0.00387154