ITEM: TIMESTEP
0
ITEM: NUMBER OF ATOMS
96
ITEM: BOX BOUNDS pp pp pp
2.9236100000000000e+00 1.2773600000000000e+01
4.0306300000000004e+00 1.3880599999999999e+01
2.1372399999999998e+00 1.1987200000000000e+01
ITEM: ATOMS id type x y z vx vy vz
1 1 7.2041 13.6752 3.47488 0.000359697 -0.000189738 0.00529359
2 2 6.77492 12.7331 3.38938 -0.00841333 -0.0121234 -0.00309128
3 2 12.2785 13.2748 11.386 -0.00215079 -0.00159776 0.00390014
4 1 3.9614 12.1714 10.9276 -0.00371434 -0.00278495 0.00118039
5 2 3.41944 11.3377 10.8643 0.000562824 0.0154356 -0.0359584
6 2 4.58005 12.1351 10.168 0.0177907 0.021249 0.0234691
7 1 12.5023 7.18649 4.0122 0.00298763 -0.000456656 0.00743421
8 2 11.657 6.72146 3.94877 0.0134667 0.00916469 0.0125156
9 2 7.7751 8.41075 7.58539 -0.0405422 -0.00565359 0.0549605
10 1 6.98023 8.66924 8.04313 -0.00210645 0.00339118 0.00262745
11 2 6.19671 8.25478 7.57142 0.00792407 -0.0142128 -0.0261475
12 2 6.52698 10.3888 8.88836 0.000994072 -0.00708732 0.00740683
13 1 6.88154 8.30474 10.9276 0.00102909 -4.95108e-05 -0.000129112
14 2 7.04431 8.25999 10.0062 -0.000811683 0.00182295 0.015352
15 2 6.03835 7.85747 10.9858 -0.00923873 0.0358215 -0.00901914
16 1 9.38801 7.60737 11.4167 -0.0015283 -0.00275098 -0.00412015
17 2 9.6796 7.24506 2.42642 -0.00456341 -0.00673059 0.0157058
18 2 8.37332 7.74061 11.5384 -0.00780449 0.0135878 -0.000850065
19 1 4.02696 7.33582 11.5232 0.00118174 -0.00510439 -0.00320979
20 2 3.58332 7.12271 2.54591 -0.0150569 -0.00881597 -0.0340089
21 2 11.5868 9.65975 10.9219 0.0132505 0.00724441 0.0160189
22 1 9.77007 10.2266 2.29534 -0.00228478 -0.00546888 0.00500497
23 2 9.20863 10.2801 3.05868 0.0123693 -0.0169574 -0.00619154
24 2 9.63081 9.29778 11.7322 0.00242703 -0.015013 0.0209485
25 1 12.6697 8.82488 6.17054 0.00086058 0.00667937 -0.00165878
26 2 3.33556 9.60042 6.0137 0.0253166 -0.0206575 -0.0191116
27 2 4.59373 6.20628 4.33324 0.00367009 -0.0105167 0.0301283
28 1 10.075 6.18915 4.08868 0.00319523 -0.00181106 0.00193137
29 2 10.0935 5.24408 4.4111 -0.0397042 0.0154583 0.00283273
30 2 9.60767 6.76148 4.74095 0.0192174 0.000989268 0.0299485
31 1 4.5605 11.0004 5.43531 -0.000454288 0.000466123 -0.00279428
32 2 3.77823 11.437 5.11969 -0.00142278 0.0392006 -0.000799881
33 2 5.0486 10.8237 4.59913 0.00303345 0.00484383 -0.0167218
34 1 7.33782 4.57816 9.38143 -0.00164935 -7.38764e-06 -0.00169116
35 2 8.01054 13.7419 9.51836 -0.0265061 0.00071833 0.00248716
36 2 6.76736 4.59619 10.25 0.00629373 -0.0143389 -0.0218475
37 1 9.04233 12.2455 10.2306 0.000482199 -0.000528819 -0.00379789
38 2 9.97212 12.065 8.61721 0.00843737 -0.0325013 0.0030049
39 2 9.37107 11.7379 11.0042 -0.0240557 0.00759148 0.00548496
40 1 12.4855 13.0163 5.34229 -0.000143612 0.000700431 0.000495369
41 2 4.72804 5.26337 5.4059 -0.0250615 0.00150874 -0.0188249
42 2 11.5681 13.1439 5.07791 -0.0170491 -0.00515374 -0.0236363
43 1 5.252 5.87387 4.90371 -0.00248652 -0.000296203 -0.00107233
44 2 12.397 7.94411 4.7143 0.00871249 0.00015411 0.000808807
45 2 6.73212 4.24857 4.20417 0.00308529 0.0381685 0.00503399
46 1 10.1719 11.9476 7.66376 -0.00792741 0.000498503 -0.00131219
47 2 9.2193 11.7498 7.17085 -0.00893789 0.00627075 0.00390435
48 2 10.7842 10.6536 7.76531 0.011334 -0.00604899 -0.0125611
49 1 9.81534 6.49555 9.01785 -9.04146e-05 -0.00297528 -0.00336027
50 2 9.22404 5.75443 9.20529 3.89504e-05 0.00539316 -0.0218809
51 2 9.93219 7.00843 9.85139 0.00779152 0.0151568 0.0505975
52 1 8.31864 9.81137 4.87221 0.00207279 -0.00347093 -0.00532268
53 2 8.64759 9.06416 5.42371 -0.00751548 0.0102077 0.028821
54 2 8.07201 10.4881 5.45951 -0.0279384 0.0045478 0.0205155
55 1 6.108 10.9518 2.85765 0.00073021 0.0110066 0.00117857
56 2 6.84889 10.6097 2.38771 0.0218859 0.0032459 -0.0138399
57 2 5.45016 11.0657 2.21465 0.0348914 0.017362 0.0126608
58 1 6.62193 11.2984 9.09253 -0.000224357 0.00371925 0.000631504
59 2 4.03717 13.3057 7.85667 0.0203739 -0.0183978 -0.0105451
60 2 8.34509 11.7095 9.89855 -0.00816939 0.00156659 0.0262797
61 1 7.69022 4.87309 6.47261 0.00274783 0.00187389 -0.000307283
62 2 7.48026 4.86667 7.47657 -0.0395333 -0.0215453 0.0265198
63 2 6.91505 5.33818 6.05216 -0.00897291 0.00491504 -0.0250073
64 1 4.35006 12.3627 8.05894 -0.000193978 0.00249331 0.00389703
65 2 4.50833 11.9195 7.1686 0.010549 0.00387891 -0.00380589
66 2 12.5651 13.4584 6.24277 -0.00432121 0.0214224 -0.0178882
67 1 10.9089 9.44898 8.0291 0.00378167 -0.00878702 -0.00357757
68 2 11.7802 9.1547 7.20721 0.00851402 -0.0233612 -0.057114
69 2 11.5227 9.48352 8.92375 0.0105893 -0.0101792 0.0101438
70 1 9.81698 13.2981 4.25541 -0.00130849 0.00250474 -0.00534128
71 2 10.1988 13.1438 3.37347 -0.00153422 -0.00625575 0.0091055
72 2 8.83978 13.4792 4.16474 -0.00504412 -0.0244134 -0.00926958
73 1 9.22818 7.52882 6.29502 -0.00502762 -0.00234061 -0.00244574
74 2 8.56873 6.76601 6.40846 0.00938732 -0.00152458 0.0141326
75 2 9.85824 7.48397 7.08821 0.00601618 0.0111506 -0.0181178
76 1 12.2775 5.80787 9.66279 0.00285206 0.00750865 -0.00396117
77 2 11.4218 6.0101 9.06433 -0.000445632 -0.0154838 0.0051001
78 2 3.63571 6.76248 10.8804 0.013036 0.00902826 -0.00509375
79 1 12.2954 9.45522 10.2805 0.00217522 -0.00501999 0.00239845
80 2 12.5297 8.5276 10.5359 0.0173794 0.00284949 -0.00387154
81 2 5.82365 11.84 8.73717 -0.00632621 0.00188207 -0.0025521
82 1 5.74096 5.10335 11.4572 0.00348603 -0.00513253 -0.00233442
83 2 6.04236 4.67527 2.41357 -0.00916266 0.0107414 0.0166503
84 2 5.5008 6.01857 11.6784 0.0177038 -0.00591663 0.00211797
85 1 11.4519 13.7654 11.3802 -0.00412035 -0.00613199 0.00403864
86 2 10.9075 13.1251 10.895 0.0115184 0.010008 -0.00635457
87 2 11.9646 5.02983 10.2733 0.0142089 0.032348 0.0295235
88 1 7.77048 12.0037 6.73382 0.0012377 0.00374399 0.00278721
89 2 7.3669 11.8832 7.69216 -0.00302473 0.0211265 -0.0169376
90 2 7.90848 12.9473 6.53482 -0.0100016 0.0234975 0.0202293
91 1 4.82825 7.28491 7.04559 -0.00302301 0.00247062 0.0014994
92 2 3.91677 7.90915 6.93908 0.00268488 -0.000940215 -0.00730129
93 2 4.19078 5.81169 7.28729 0.00191899 0.0106721 -0.00861275
94 1 3.44499 5.11447 7.28618 0.00466268 -0.00311721 0.00103515
95 2 12.7369 5.27086 8.08151 0.0141021 -0.00531172 0.0284761
96 2 5.13157 7.14032 6.10035 0.0215761 0.0191925 -0.0184162
ITEM: TIMESTEP
1
ITEM: NUMBER OF ATOMS
96
ITEM: BOX BOUNDS pp pp pp
2.9236100000000000e+00 1.2773600000000000e+01
4.0306300000000004e+00 1.3880599999999999e+01
2.1372399999999998e+00 1.1987200000000000e+01
ITEM: ATOMS id type x y z vx vy vz
1 1 7.20422 13.675 3.47753 0.000100971 -0.000710832 0.00530771
2 2 6.77155 12.729 3.38818 -0.0050594 -0.00378609 -0.00149874
3 2 12.2785 13.274 11.3883 0.00226165 -0.0014285 0.00539275
4 1 3.95953 12.1699 10.9282 -0.00375218 -0.00311703 0.00116266
5 2 3.4209 11.3466 10.8459 0.00493675 0.0195401 -0.0377018
6 2 4.58784 12.1455 10.1803 0.0135341 0.0203853 0.0252921
7 1 12.5039 7.18638 4.01598 0.0034358 1.1605e-05 0.00769262
8 2 11.6627 6.72555 3.95505 0.00890857 0.00694408 0.0125594
9 2 7.75494 8.40763 7.61244 -0.0379542 -0.00736216 0.0523024
10 1 6.97912 8.67095 8.04446 -0.00245183 0.00347825 0.00273932
11 2 6.20143 8.24779 7.55869 0.0109106 -0.0135539 -0.024462
12 2 6.52706 10.3837 8.89125 -0.000630102 -0.0125035 0.00428766
13 1 6.88204 8.30473 10.9276 0.000982133 1.10559e-05 0.000216902
14 2 7.04448 8.26116 10.0122 0.00168135 0.00283842 0.0078817
15 2 6.03302 7.87515 10.9819 -0.0124417 0.0346939 -0.00648201
16 1 9.3872 7.60604 11.4147 -0.00172174 -0.00259099 -0.00377688
17 2 9.67742 7.24136 2.43413 -0.00432917 -0.00788718 0.014572
18 2 8.37021 7.74717 11.5374 -0.00440263 0.0125351 -0.00307077
19 1 4.0276 7.33329 11.5216 0.00140336 -0.00499563 -0.00302906
20 2 3.57578 7.11863 2.5286 -0.0152877 -0.00759195 -0.0345092
21 2 11.5934 9.66335 10.9298 0.0130196 0.00700166 0.0154571
22 1 9.76896 10.2238 2.29775 -0.00215252 -0.00566879 0.00460294
23 2 9.21447 10.2712 3.05629 0.0105678 -0.018337 -0.00267922
24 2 9.63204 9.29141 11.7435 0.00262418 -0.010462 0.0240333
25 1 12.6701 8.82815 6.16981 0.000927913 0.0063682 -0.00126847
26 2 3.3482 9.59022 6.00421 0.0253025 -0.0196015 -0.0187071
27 2 4.59449 6.20185 4.34729 -0.00138081 -0.00624514 0.0247577
28 1 10.0766 6.18822 4.08959 0.00303861 -0.00187181 0.00174881
29 2 10.0733 5.25211 4.41247 -0.0407629 0.0160228 0.00267405
30 2 9.61752 6.76165 4.75649 0.020316 -0.000266637 0.0318373
31 1 4.56031 11.0006 5.43388 -0.000327497 0.000249097 -0.0029554
32 2 3.77669 11.4575 5.11937 -0.00399326 0.0424557 -0.000195374
33 2 5.05025 10.8262 4.59138 0.00326638 0.00529211 -0.013863
34 1 7.33699 4.57816 9.38062 -0.00165586 4.42791e-05 -0.00161224
35 2 7.99688 13.7423 9.51991 -0.0273277 0.000336569 0.00357728
36 2 6.77148 4.58912 10.2376 0.00951689 -0.0137639 -0.0269492
37 1 9.04267 12.2453 10.2287 0.000889562 -0.00038273 -0.00369285
38 2 9.97568 12.0489 8.61914 0.00570566 -0.0317905 0.00473364
39 2 9.35908 11.7415 11.007 -0.023607 0.00693308 0.00580515
40 1 12.4854 13.0167 5.34262 -0.000144602 0.000839046 0.000773972
41 2 4.71505 5.26357 5.39714 -0.0266368 -0.00114873 -0.0156365
42 2 11.5596 13.1413 5.06624 -0.0162596 -0.00538303 -0.0227137
43 1 5.25086 5.8737 4.9032 -0.00205363 -0.000394384 -0.000910246
44 2 12.4017 7.94332 4.71445 0.00994518 -0.00322545 -0.000187659
45 2 6.7337 4.26739 4.20669 0.0034078 0.0366073 0.00460247
46 1 10.168 11.9478 7.6631 -0.00753216 0.000440242 -0.00132505
47 2 9.21565 11.7527 7.17323 -0.00550496 0.00533806 0.0056538
48 2 10.7895 10.6489 7.75942 0.00962793 -0.0134897 -0.0107702
49 1 9.81536 6.49405 9.01609 0.000189476 -0.00295627 -0.00356113
50 2 9.22378 5.7572 9.19476 -0.00114111 0.00561944 -0.020126
51 2 9.93557 7.01576 9.87685 0.0053914 0.0130261 0.0495246
52 1 8.31972 9.80954 4.86948 0.00223551 -0.00377584 -0.00550047
53 2 8.64367 9.06976 5.43789 -0.00823218 0.0122874 0.0274911
54 2 8.05766 10.4914 5.47069 -0.0291102 0.00753251 0.0230263
55 1 6.10839 10.9573 2.85836 0.000954094 0.0111087 0.00165933
56 2 6.86012 10.6108 2.38026 0.0222349 0.0017069 -0.0153006
57 2 5.4667 11.0747 2.21975 0.030302 0.0187789 0.00688523
58 1 6.62182 11.3004 9.09286 -0.000217918 0.00431813 0.000667316
59 2 4.04791 13.2954 7.8513 0.0222466 -0.0218648 -0.0109059
60 2 8.33974 11.7096 9.91117 -0.0133925 -0.000924144 0.0239289
61 1 7.69151 4.87408 6.47256 0.00236803 0.0021097 0.000138405
62 2 7.46072 4.85606 7.48784 -0.0382788 -0.0207492 0.0175049
63 2 6.91147 5.33982 6.04044 -0.00480136 0.00128558 -0.0215019
64 1 4.34997 12.364 8.06081 -0.000164587 0.00254392 0.00358672
65 2 4.51311 11.9223 7.16765 0.00857643 0.00711208 0.000118624
66 2 12.5629 13.4686 6.23222 -0.00470314 0.0196153 -0.0239431
67 1 10.9108 9.44469 8.02729 0.00390815 -0.00828205 -0.00363471
68 2 11.7853 9.14279 7.17709 0.012106 -0.0240452 -0.0629839
69 2 11.5273 9.47834 8.92802 0.00744157 -0.0105845 0.00617545
70 1 9.81635 13.2994 4.25276 -0.00123227 0.0025948 -0.00521346
71 2 10.1974 13.141 3.37807 -0.00395319 -0.00491163 0.0088288
72 2 8.83777 13.4667 4.15944 -0.00321202 -0.0254885 -0.0118958
73 1 9.22563 7.52758 6.29387 -0.00515259 -0.00259883 -0.00218274
74 2 8.57501 6.76625 6.41594 0.015403 0.00217032 0.0157976
75 2 9.85969 7.48926 7.07797 1.71384e-05 0.00998289 -0.022479
76 1 12.2788 5.8116 9.66074 0.00230309 0.00740624 -0.0042259
77 2 11.4228 6.00232 9.06868 0.00394457 -0.0154367 0.0119838
78 2 3.64163 6.76621 10.877 0.0105761 0.00563026 -0.00889457
79 1 12.2965 9.45271 10.2818 0.00228238 -0.00499308 0.00273821
80 2 12.5385 8.52952 10.5337 0.017757 0.00458178 -0.00475557
81 2 5.82063 11.84 8.73612 -0.00550607 -0.00199813 -0.00160043
82 1 5.74265 5.10081 11.456 0.00328276 -0.00503825 -0.0025198
83 2 6.03838 4.68025 2.42281 -0.00680244 0.00915417 0.0199131
84 2 5.50938 6.01593 11.6794 0.0165482 -0.00457326 0.00171688
85 1 11.4498 13.7623 11.3822 -0.00420175 -0.00625886 0.00400634
86 2 10.9125 13.1306 10.8917 0.00803496 0.0115491 -0.00706642
87 2 11.972 5.0468 10.2876 0.0154923 0.0353076 0.0277177
88 1 7.77102 12.0055 6.73524 0.000931432 0.00343951 0.00287233
89 2 7.36566 11.8941 7.68289 -0.00221531 0.0222579 -0.0195341
90 2 7.9031 12.9602 6.54516 -0.0114513 0.0277351 0.0209251
91 1 4.82664 7.2863 7.04631 -0.00340396 0.00306025 0.0013236
92 2 3.91904 7.9082 6.93456 0.00644437 -0.00292105 -0.0106112
93 2 4.19135 5.817 7.28322 0.000153449 0.0103479 -0.00768758
94 1 3.44732 5.11281 7.28667 0.00465435 -0.00348251 0.000942772
95 2 12.7443 5.26851 8.09629 0.0158318 -0.00422222 0.0300732
96 2 5.14218 7.14946 6.09127 0.0204918 0.0172974 -0.0170751
ITEM: TIMESTEP
2
ITEM: NUMBER OF ATOMS
96
ITEM: BOX BOUNDS pp pp pp
2.9236100000000000e+00 1.2773600000000000e+01
4.0306300000000004e+00 1.3880599999999999e+01
2.1372399999999998e+00 1.1987200000000000e+01
ITEM: ATOMS id type x y z vx vy vz
1 1 7.2042 13.6745 3.48019 -0.000181757 -0.00120318 0.00534604
2 2 6.76986 12.7293 3.38788 -0.00177133 0.0050127 0.000457464
3 2 12.2808 13.2734 11.3914 0.00636121 -0.0011861 0.00685976
4 1 3.95765 12.1683 10.9288 -0.00376361 -0.00335721 0.00118509
5 2 3.42438 11.3572 10.8266 0.00850292 0.022317 -0.0394327
6 2 4.59358 12.1555 10.1933 0.00969839 0.0194162 0.0264911
7 1 12.5057 7.1865 4.01989 0.00390912 0.000475273 0.0079293
8 2 11.6659 6.7284 3.96133 0.00386504 0.00436223 0.0125571
9 2 7.73715 8.40339 7.63769 -0.0311897 -0.0101567 0.0478891
10 1 6.97778 8.67272 8.04587 -0.00304776 0.00361583 0.00292825
11 2 6.20762 8.24123 7.54696 0.0137147 -0.0124992 -0.0221992
12 2 6.52635 10.3763 8.89265 -0.00211868 -0.0164364 0.00147555
13 1 6.88252 8.30475 10.9278 0.000944449 9.35278e-05 0.000606418
14 2 7.04599 8.26283 10.0141 0.00438221 0.00378568 -0.000328903
15 2 6.02591 7.89216 10.9793 -0.0160941 0.0333226 -0.00385054
16 1 9.38629 7.60478 11.4129 -0.00189892 -0.00246936 -0.00337814
17 2 9.67527 7.23717 2.44099 -0.00442947 -0.00871039 0.0123751
18 2 8.36892 7.75315 11.5353 -0.000724446 0.011285 -0.0053263
19 1 4.02836 7.33082 11.5202 0.00166139 -0.00484712 -0.00289265
20 2 3.56803 7.11512 2.5114 -0.0159298 -0.00654024 -0.0335931
21 2 11.5998 9.66675 10.9374 0.0128714 0.0064746 0.0148027
22 1 9.76792 10.2209 2.29994 -0.00198575 -0.00587451 0.00416318
23 2 9.2192 10.2618 3.056 0.00806378 -0.0192388 0.00207279
24 2 9.63343 9.28732 11.7562 0.00304788 -0.00606312 0.026533
25 1 12.6706 8.83125 6.16927 0.00096941 0.00600489 -0.000919335
26 2 3.36086 9.58082 5.99499 0.0253434 -0.0175325 -0.0180429
27 2 4.59235 6.20003 4.358 -0.00763871 -0.000122306 0.0170219
28 1 10.078 6.18728 4.09043 0.00283917 -0.00184103 0.00160988
29 2 10.0527 5.2601 4.41377 -0.0413764 0.0152811 0.00252061
30 2 9.62799 6.76121 4.77279 0.0216602 -0.00137882 0.0329274
31 1 4.56017 11.0006 5.43235 -0.000269577 7.97909e-05 -0.00320072
32 2 3.77424 11.4795 5.11949 -0.00501122 0.0447795 0.00100186
33 2 5.05187 10.829 4.58527 0.00295308 0.00591589 -0.0102654
34 1 7.33616 4.5782 9.37982 -0.00166444 0.000146187 -0.00163571
35 2 7.98321 13.7422 9.52194 -0.0265644 -0.00128287 0.00437531
36 2 6.77688 4.58243 10.2231 0.0112254 -0.0128002 -0.0303143
37 1 9.04322 12.2451 10.2269 0.00127485 -0.000266989 -0.00358466
38 2 9.97783 12.0332 8.62194 0.00284363 -0.030894 0.00635735
39 2 9.34746 11.7448 11.01 -0.0226257 0.00648225 0.00641451
40 1 12.4854 13.0171 5.34306 -0.000232813 0.000958356 0.000954973
41 2 4.7014 5.26222 5.39026 -0.027597 -0.0045941 -0.0113926
42 2 11.5518 13.1385 5.0552 -0.0139495 -0.00572453 -0.0211511
43 1 5.24995 5.87348 4.9028 -0.00157244 -0.000547129 -0.000655963
44 2 12.4069 7.94088 4.71411 0.0110221 -0.00636832 -0.00109234
45 2 6.73553 4.28518 4.20877 0.00406267 0.0340814 0.00338764
46 1 10.1644 11.948 7.66243 -0.00708266 0.000312183 -0.00131107
47 2 9.2138 11.7551 7.1765 -0.00182866 0.00428212 0.00745817
48 2 10.7938 10.6401 7.75454 0.0077238 -0.0221511 -0.00854544
49 1 9.81553 6.49259 9.01429 0.000510346 -0.00279588 -0.00355089
50 2 9.2229 5.76005 9.18516 -0.00244417 0.00575653 -0.0181716
51 2 9.93758 7.02146 9.90091 0.00233527 0.0087724 0.0452146
52 1 8.32088 9.80759 4.86671 0.00235343 -0.00396123 -0.00548041
53 2 8.63936 9.07645 5.4512 -0.00901719 0.0144702 0.0253808
54 2 8.0429 10.4956 5.48254 -0.0295406 0.00855606 0.0231612
55 1 6.10895 10.9629 2.85931 0.00138222 0.0111413 0.00215036
56 2 6.87112 10.6114 2.37241 0.0209841 0.000966434 -0.0154527
57 2 5.48046 11.0845 2.22154 0.0240892 0.0205344 -0.000275505
58 1 6.62171 11.3027 9.0932 -0.000243683 0.00483364 0.000689632
59 2 4.05942 13.2838 7.84576 0.023392 -0.0233449 -0.0112194
60 2 8.3317 11.7086 9.92248 -0.0187224 -0.00312778 0.0211887
61 1 7.69259 4.8752 6.47275 0.00189526 0.00235529 0.000660727
62 2 7.44198 4.84592 7.49407 -0.0363957 -0.0196741 0.00674529
63 2 6.91025 5.33947 6.03066 0.00022642 -0.00288443 -0.0173741
64 1 4.3499 12.3652 8.06253 -9.84326e-05 0.00248804 0.00326941
65 2 4.51691 11.9266 7.16872 0.00667254 0.00987816 0.0040825
66 2 12.5604 13.478 6.21883 -0.00512439 0.018216 -0.0290367
67 1 10.9128 9.4407 8.02547 0.00402639 -0.00763063 -0.0036673
68 2 11.7923 9.13065 7.14423 0.0161464 -0.0242696 -0.0681824
69 2 11.5301 9.47294 8.92993 0.0038248 -0.0110839 0.000867247
70 1 9.81575 13.3007 4.2502 -0.00116128 0.00267282 -0.00503334
71 2 10.1948 13.1389 3.3823 -0.00584187 -0.00376305 0.0075869
72 2 8.83657 13.4537 4.15284 -0.00180381 -0.0264114 -0.014373
73 1 9.22303 7.52622 6.29284 -0.00526182 -0.00280878 -0.00197005
74 2 8.58413 6.76818 6.42426 0.0205828 0.00508049 0.017492
75 2 9.85826 7.49395 7.06573 -0.00531198 0.00878297 -0.0259589
76 1 12.2798 5.81528 9.65856 0.00181192 0.00729255 -0.0044408
77 2 11.4257 5.99466 9.07631 0.00726125 -0.0149167 0.0180391
78 2 3.64629 6.76811 10.8715 0.00807513 0.00193106 -0.0133845
79 1 12.2977 9.45023 10.2832 0.00238997 -0.00491648 0.00306206
80 2 12.5475 8.53218 10.5311 0.01804 0.00581227 -0.0053328
81 2 5.81814 11.838 8.73557 -0.00426962 -0.00610613 -0.000528802
82 1 5.74424 5.09831 11.4547 0.00309587 -0.0049488 -0.00261686
83 2 6.03556 4.68442 2.43348 -0.00461478 0.00758149 0.0222426
84 2 5.51735 6.014 11.6801 0.0152994 -0.0031924 0.000961371
85 1 11.4477 13.7591 11.3842 -0.0042272 -0.0063326 0.00399637
86 2 10.9155 13.1366 10.8879 0.00404077 0.0124042 -0.00825062
87 2 11.9801 5.06514 10.301 0.0166634 0.0377467 0.0260257
88 1 7.77141 12.0071 6.73669 0.000611511 0.00324228 0.00288281
89 2 7.36468 11.9055 7.67263 -0.00191764 0.022728 -0.0208869
90 2 7.89703 12.975 6.55575 -0.0127498 0.0311821 0.0211797
91 1 4.82485 7.28797 7.04691 -0.0037206 0.0036268 0.00103173
92 2 3.92321 7.90623 6.92847 0.0101864 -0.0050024 -0.0134916
93 2 4.19093 5.82204 7.2796 -0.00197935 0.00956687 -0.00683984
94 1 3.44964 5.11099 7.28712 0.00461991 -0.00379781 0.000915386
95 2 12.7527 5.26664 8.11158 0.018284 -0.00345775 0.0305154
96 2 5.15206 7.15762 6.08327 0.0187467 0.0152546 -0.0141894
ITEM: TIMESTEP
3
ITEM: NUMBER OF ATOMS
96
ITEM: BOX BOUNDS pp pp pp
2.9236100000000000e+00 1.2773600000000000e+01
4.0306300000000004e+00 1.3880599999999999e+01
2.1372399999999998e+00 1.1987200000000000e+01
ITEM: ATOMS id type x y z vx vy vz
1 1 7.20404 13.6738 3.48287 -0.000471311 -0.0016355 0.00540114
2 2 6.76977 12.734 3.38864 0.00121074 0.0136531 0.00267127
3 2 12.2849 13.2729 11.3952 0.00977898 -0.000781807 0.00821877
4 1 3.95577 12.1666 10.9294 -0.00374856 -0.00349196 0.00126314
5 2 3.4294 11.3689 10.8064 0.0110026 0.0234819 -0.0411988
6 2 4.59754 12.1649 10.2067 0.00651776 0.0184286 0.0268936
7 1 12.5078 7.18685 4.02391 0.00438824 0.000909263 0.00813253
8 2 11.6665 6.72991 3.9676 -0.00128943 0.00164242 0.0125509
9 2 7.72375 8.39747 7.66033 -0.0207471 -0.0139521 0.0421518
10 1 6.97608 8.67457 8.04739 -0.00385221 0.00380264 0.00317888
11 2 6.21515 8.23529 7.53649 0.0162041 -0.0111089 -0.0194762
12 2 6.52494 10.3673 8.89273 -0.00338631 -0.0185545 -0.000937574
13 1 6.88299 8.30482 10.9282 0.000900818 0.000182104 0.000988155
14 2 7.04887 8.26495 10.0118 0.00698287 0.0046646 -0.00837265
15 2 6.01692 7.90847 10.9781 -0.0196902 0.031964 -0.00129292
16 1 9.3853 7.60357 11.4113 -0.00204409 -0.00238864 -0.00293833
17 2 9.67299 7.23265 2.44651 -0.00480926 -0.00926054 0.00928776
18 2 8.36949 7.75845 11.5321 0.00292669 0.00989093 -0.00755571
19 1 4.02926 7.32844 11.5188 0.00194252 -0.00468292 -0.00281986
20 2 3.55985 7.11209 2.495 -0.0169888 -0.00566182 -0.0314154
21 2 11.6062 9.66982 10.9446 0.0128276 0.00566557 0.0140568
22 1 9.76697 10.2179 2.30191 -0.00180048 -0.00606439 0.00371738
23 2 9.22253 10.252 3.05836 0.00513129 -0.0196563 0.00770885
24 2 9.63509 9.28535 11.77 0.00367672 -0.00207972 0.0283086
25 1 12.6711 8.83415 6.16889 0.000977556 0.00560663 -0.000613629
26 2 3.37355 9.57269 5.98617 0.0253999 -0.014551 -0.0171301
27 2 4.58685 6.20172 4.36431 -0.0142509 0.00719365 0.00795981
28 1 10.0794 6.18638 4.0912 0.00260054 -0.00172648 0.00151865
29 2 10.0319 5.26739 4.41499 -0.041591 0.0132724 0.00231325
30 2 9.63918 6.76027 4.78942 0.0232516 -0.00230547 0.0331861
31 1 4.56004 11.0007 5.43068 -0.000292453 -3.27081e-05 -0.00351492
32 2 3.77168 11.5023 5.12037 -0.00439148 0.0460346 0.00277002
33 2 5.0532 10.8321 4.58111 0.00219455 0.00668639 -0.00618225
34 1 7.33533 4.57831 9.37898 -0.00165763 0.000292958 -0.00177078
35 2 7.97032 13.741 9.52428 -0.024296 -0.00406725 0.00483683
36 2 6.78271 4.57632 10.2073 0.011208 -0.0114341 -0.031707
37 1 9.04395 12.245 10.2251 0.00161151 -0.000205983 -0.00348014
38 2 9.97852 12.018 8.6255 -4.2802e-05 -0.0298428 0.00767526
39 2 9.33646 11.748 11.0134 -0.0211925 0.00626382 0.00717929
40 1 12.4852 13.0176 5.34357 -0.000393742 0.0010426 0.00102034
41 2 4.68746 5.25897 5.38575 -0.0276811 -0.00823932 -0.00666417
42 2 11.5456 13.1356 5.04509 -0.0104076 -0.0061525 -0.0190602
43 1 5.24928 5.87316 4.90255 -0.00111504 -0.000750406 -0.000338894
44 2 12.4127 7.93695 4.71336 0.0118974 -0.0091605 -0.00184476
45 2 6.73776 4.30148 4.21008 0.00495699 0.0307442 0.00159376
46 1 10.1609 11.9482 7.66179 -0.00659784 0.000126901 -0.00125832
47 2 9.21383 11.757 7.18069 0.00199693 0.00316782 0.00925366
48 2 10.7972 10.6267 7.75088 0.00575083 -0.0318939 -0.00589972
49 1 9.81587 6.49125 9.01254 0.00085421 -0.00252106 -0.00335362
50 2 9.22134 5.76295 9.17659 -0.00383553 0.00582716 -0.016106
51 2 9.93791 7.02454 9.92206 -0.00124322 0.00281478 0.0381335
52 1 8.32208 9.80558 4.864 0.00241689 -0.00402017 -0.00527001
53 2 8.63465 9.08423 5.46327 -0.00979093 0.0166105 0.0225815
54 2 8.02812 10.4999 5.49385 -0.0291666 0.00768978 0.0209336
55 1 6.10978 10.9685 2.86051 0.00196431 0.0111115 0.00260869
56 2 6.8811 10.6118 2.36481 0.0181849 0.000999129 -0.0143197
57 2 5.49079 11.0952 2.21947 0.0169726 0.022531 -0.00811613
58 1 6.62158 11.3053 9.09355 -0.000294735 0.00523263 0.000698939
59 2 4.0713 13.2721 7.84008 0.0237564 -0.022626 -0.0114962
60 2 8.32102 11.7065 9.93235 -0.0236576 -0.00471329 0.0182955
61 1 7.69341 4.87644 6.47322 0.00136667 0.00258976 0.00122733
62 2 7.42433 4.83639 7.49459 -0.0339909 -0.01832 -0.00495527
63 2 6.9117 5.33693 6.02306 0.00560773 -0.00728601 -0.0129571
64 1 4.34987 12.3665 8.06408 -5.6434e-07 0.00232636 0.00296585
65 2 4.51978 11.9322 7.17173 0.00492235 0.0119456 0.00776984
66 2 12.5577 13.4868 6.20318 -0.00551682 0.0174284 -0.0327744
67 1 10.9148 9.43706 8.02363 0.004127 -0.00685439 -0.00367611
68 2 11.8015 9.11852 7.10891 0.0207556 -0.0240624 -0.0728351
69 2 11.5311 9.46726 8.92888 -0.000126227 -0.0116284 -0.00549435
70 1 9.81518 13.302 4.24773 -0.001096 0.00274049 -0.00480721
71 2 10.1915 13.1373 3.38566 -0.00711988 -0.00282872 0.00540819
72 2 8.83596 13.4403 4.14506 -0.000833863 -0.0271766 -0.016607
73 1 9.22037 7.52477 6.2919 -0.00535848 -0.00295309 -0.00182644
74 2 8.59559 6.77133 6.43343 0.0246217 0.00690676 0.0192275
75 2 9.85438 7.49804 7.05201 -0.00959354 0.00761062 -0.0282406
76 1 12.2806 5.81889 9.6563 0.00140742 0.00717471 -0.00459221
77 2 11.43 5.9874 9.08672 0.00918573 -0.01386 0.0229187
78 2 3.64971 6.76814 10.8636 0.00577198 -0.00169654 -0.018096
79 1 12.2989 9.44779 10.2848 0.00249154 -0.00478969 0.00336311
80 2 12.5565 8.53533 10.5284 0.0182622 0.00651471 -0.0055716
81 2 5.81636 11.8339 8.73559 -0.00276993 -0.010284 0.000639566
82 1 5.74575 5.09586 11.4534 0.00292984 -0.00486449 -0.00260654
83 2 6.03377 4.68784 2.44505 -0.00271282 0.00619913 0.0233427
84 2 5.52468 6.01274 11.6804 0.0139889 -0.00193114 -0.000150687
85 1 11.4456 13.756 11.3862 -0.00418766 -0.00636782 0.00400624
86 2 10.9165 13.143 10.8835 -0.000219662 0.012679 -0.00978631
87 2 11.9887 5.08454 10.3136 0.0177003 0.0394812 0.0246185
88 1 7.77164 12.0087 6.73813 0.00028821 0.00317009 0.00281834
89 2 7.36374 11.9169 7.662 -0.00212931 0.0224954 -0.0209807
90 2 7.89035 12.9914 6.56634 -0.0138726 0.0335672 0.0209661
91 1 4.82292 7.28992 7.04734 -0.00396552 0.00416271 0.000640525
92 2 3.92923 7.9032 6.92107 0.0137452 -0.00710455 -0.0157926
93 2 4.18937 5.82657 7.27638 -0.00438042 0.00837591 -0.00610934
94 1 3.45194 5.10902 7.28758 0.00456118 -0.0040603 0.000952075
95 2 12.7626 5.26506 8.1268 0.0213492 -0.00306396 0.0297941
96 2 5.16092 7.16471 6.07708 0.0164886 0.0129874 -0.0100594
ITEM: TIMESTEP
4
ITEM: NUMBER OF ATOMS
96
ITEM: BOX BOUNDS pp pp pp
2.9236100000000000e+00 1.2773600000000000e+01
4.0306300000000004e+00 1.3880599999999999e+01
2.1372399999999998e+00 1.1987200000000000e+01
ITEM: ATOMS id type x y z vx vy vz
1 1 7.20373 13.6729 3.48559 -0.000747967 -0.00197968 0.00546407
2 2 6.77107 12.743 3.39055 0.0036455 0.0215255 0.00503667
3 2 12.2905 13.2726 11.3996 0.012213 -0.000162527 0.00938821
4 1 3.9539 12.1648 10.93 -0.00370898 -0.00351641 0.00140869
5 2 3.43538 11.3807 10.7854 0.0122624 0.0228801 -0.0430586
6 2 4.6001 12.1739 10.2202 0.00417795 0.0175165 0.0263909
7 1 12.5101 7.18741 4.02803 0.00485363 0.00128851 0.0082907
8 2 11.6646 6.73005 3.97388 -0.00616755 -0.000988449 0.0125804
9 2 7.7164 8.38944 7.67984 -0.00767475 -0.0184784 0.0357227
10 1 6.97393 8.67652 8.04905 -0.00479208 0.00402533 0.00346302
11 2 6.22382 8.23012 7.52748 0.0183045 -0.0094507 -0.016422
12 2 6.52296 10.3577 8.89171 -0.00436209 -0.0187269 -0.00289704
13 1 6.88342 8.30493 10.9288 0.000835955 0.000262798 0.00131243
14 2 7.05297 8.26749 10.0057 0.00919094 0.00548293 -0.0153861
15 2 6.00622 7.92413 10.978 -0.0227369 0.0308348 0.00104556
16 1 9.38424 7.60239 11.41 -0.00214401 -0.00234875 -0.0024726
17 2 9.67046 7.22791 2.45028 -0.00540548 -0.00960518 0.00552883
18 2 8.37184 7.76304 11.5278 0.00626299 0.00841551 -0.0096961
19 1 4.03031 7.32614 11.5174 0.00222999 -0.00452842 -0.00282481
20 2 3.55104 7.10946 2.47999 -0.0184152 -0.00493277 -0.0282366
21 2 11.6126 9.67242 10.9514 0.0129069 0.00458449 0.0132242
22 1 9.76612 10.2149 2.30366 -0.00161643 -0.00621803 0.00330131
23 2 9.22433 10.2421 3.06371 0.00210631 -0.0196059 0.0137621
24 2 9.63711 9.28524 11.7845 0.00447971 0.0012366 0.0292634
25 1 12.6716 8.83685 6.16866 0.000950313 0.00519349 -0.000355121
26 2 3.38626 9.56627 5.97786 0.0253855 -0.0108222 -0.0159679
27 2 4.5781 6.20723 4.36596 -0.0200916 0.014378 -0.000655094
28 1 10.0806 6.18555 4.09195 0.00232764 -0.00154258 0.0014784
29 2 10.0111 5.27338 4.41609 -0.0414582 0.010141 0.00197308
30 2 9.65124 6.75891 4.80597 0.0250736 -0.00301341 0.0326261
31 1 4.55988 11.0006 5.42884 -0.000400249 -8.45137e-05 -0.0038764
32 2 3.76985 11.5255 5.12226 -0.00220137 0.0461668 0.00503031
33 2 5.05406 10.8357 4.57908 0.0011284 0.0075629 -0.00190997
34 1 7.33451 4.5785 9.37805 -0.00161588 0.000471721 -0.00201821
35 2 7.95892 13.7382 9.52677 -0.0207617 -0.00779628 0.00492933
36 2 6.78808 4.57099 10.1913 0.00939099 -0.00967703 -0.0310525
37 1 9.04483 12.2449 10.2234 0.00187566 -0.000219641 -0.00338353
38 2 9.97778 12.0034 8.62962 -0.0028423 -0.0286628 0.00851102
39 2 9.32627 11.7511 11.0172 -0.0194034 0.00628913 0.00795452
40 1 12.485 13.0182 5.34408 -0.000608059 0.00107832 0.00096044
41 2 4.67372 5.25398 5.3836 -0.0266379 -0.0109125 -0.00262077
42 2 11.5414 13.1324 5.03614 -0.00600268 -0.00663727 -0.0165896
43 1 5.24883 5.87273 4.90246 -0.000770749 -0.000995405 2.71122e-06
44 2 12.4188 7.93172 4.71227 0.0125357 -0.0114925 -0.00237879
45 2 6.74048 4.31592 4.21037 0.0059586 0.0267797 -0.000573827
46 1 10.1578 11.9482 7.66118 -0.0060972 -0.000100339 -0.00115593
47 2 9.21579 11.7583 7.18576 0.00582967 0.00205881 0.01095
48 2 10.7996 10.6082 7.74864 0.00385137 -0.0424224 -0.00289259
49 1 9.81638 6.49007 9.01094 0.001202 -0.00216276 -0.00300484
50 2 9.21906 5.76588 9.16906 -0.00529264 0.00583189 -0.0140191
51 2 9.93634 7.02427 9.93905 -0.00516379 -0.00434552 0.0288877
52 1 8.32329 9.80357 4.86144 0.00242116 -0.00395579 -0.004893
53 2 8.62957 9.09306 5.47378 -0.0104554 0.0185171 0.0192443
54 2 8.01373 10.5033 5.50347 -0.0280186 0.00520769 0.016559
55 1 6.11092 10.974 2.86192 0.00263619 0.0110328 0.00298924
56 2 6.88931 10.6124 2.35809 0.0140085 0.00172476 -0.0120183
57 2 5.49743 11.107 2.21342 0.0097718 0.0246242 -0.0158106
58 1 6.62142 11.308 9.0939 -0.000360711 0.00549356 0.000698353
59 2 4.08317 13.2612 7.83427 0.0233508 -0.0196804 -0.0117358
60 2 8.30804 11.7039 9.94077 -0.0277307 -0.00540537 0.0154584
61 1 7.69395 4.87779 6.47398 0.000824059 0.00279499 0.00180857
62 2 7.40799 4.8276 7.48912 -0.0312219 -0.0167145 -0.0167589
63 2 6.91586 5.33218 6.0177 0.0108228 -0.0116042 -0.00861177
64 1 4.34989 12.3676 8.06549 0.000121504 0.00206852 0.00269339
65 2 4.52183 11.9386 7.17649 0.00339583 0.0131371 0.010915
66 2 12.5549 13.4954 6.18605 -0.00582219 0.017423 -0.034864
67 1 10.9169 9.43384 8.02179 0.00419712 -0.00598589 -0.00366017
68 2 11.8131 9.10659 7.07139 0.0260434 -0.0235 -0.0771895
69 2 11.53 9.46131 8.92443 -0.00423319 -0.0121505 -0.012458
70 1 9.81465 13.3034 4.24539 -0.00103736 0.00279979 -0.00454659
71 2 10.1877 13.1361 3.38771 -0.00775339 -0.00210269 0.00241197
72 2 8.83573 13.4265 4.13624 -0.000268412 -0.0277903 -0.0185128
73 1 9.21767 7.52327 6.29101 -0.00544744 -0.00301926 -0.00176659
74 2 8.60875 6.77509 6.44349 0.0272882 0.00741658 0.021014
75 2 9.84866 7.50156 7.03749 -0.0124984 0.00653802 -0.0290779
76 1 12.2812 5.82245 9.65397 0.00111085 0.00705923 -0.00467057
77 2 11.4349 5.9808 9.09923 0.00951945 -0.0122606 0.0263785
78 2 3.65206 6.76641 10.8534 0.00389106 -0.0048847 -0.0225328
79 1 12.3002 9.44544 10.2866 0.00258085 -0.00461567 0.00363495
80 2 12.5657 8.5387 10.5256 0.0184535 0.00670685 -0.00545463