ITEM: TIMESTEP
0
ITEM: NUMBER OF ATOMS
96
ITEM: BOX BOUNDS pp pp pp
2.9236100000000000e+00 1.2773600000000000e+01
4.0306300000000004e+00 1.3880599999999999e+01
2.1372399999999998e+00 1.1987200000000000e+01
ITEM: ATOMS id type x y z vx vy vz
1 1 7.04905 13.0336 3.30128 -0.00583514 0.00318059 -7.78711e-05
2 2 6.53769 12.2234 3.04498 0.0286151 0.0257297 0.00876017
3 2 9.69424 12.833 11.0023 -0.013322 -0.00776359 -0.012094
4 1 12.2892 9.78356 2.33157 0.00199732 0.000509296 0.0004808
5 2 11.3802 10.1358 2.15238 0.0207274 0.00867608 0.00272918
6 2 12.2201 9.04194 2.98251 -0.012461 -0.00243053 0.00951163
7 1 12.1062 7.58334 4.00631 -0.000170661 -0.00353555 -0.00224007
8 2 11.128 7.4068 4.15304 0.0272577 0.00109773 0.021121
9 2 8.18303 8.39449 8.70567 0.00204499 -0.0175543 0.0124561
10 1 7.47449 8.27462 9.38795 -0.00293958 -0.00184075 -0.000105821
11 2 6.98361 7.51532 9.01588 0.0290562 0.00541538 -0.00372811
12 2 6.34306 9.86405 9.38055 -0.0107128 -0.0266843 0.00368236
13 1 6.23737 8.69547 11.877 0.0149682 0.00217419 0.00626255
14 2 6.36197 9.3168 11.1518 0.0240287 -0.00988025 -0.0054919
15 2 5.88734 7.91734 11.37 -0.0102199 0.00296772 0.00443139
16 1 9.59649 7.74808 11.1476 -0.000226236 0.000230053 0.00326518
17 2 9.54069 7.3909 2.19298 -0.0312133 -0.00145738 0.00133558
18 2 8.68846 7.73355 10.7387 0.0342359 0.013724 -0.00324025
19 1 4.81493 6.27967 11.117 -6.73845e-05 0.00516538 0.00339177
20 2 4.76422 5.8846 2.18719 -0.00457291 0.00185318 -0.0252288
21 2 11.8378 8.03149 9.7256 -0.00462272 -0.020693 -0.0161573
22 1 9.61925 10.5526 11.6453 0.000359118 0.00315486 -0.00376911
23 2 9.29492 10.4779 2.79515 0.0170034 -0.00205943 0.0141102
24 2 9.56962 9.59068 11.4288 -0.032082 0.00592361 -0.0159704
25 1 3.27735 8.43284 6.33814 -0.00433403 -0.00604189 -0.00567176
26 2 3.56662 9.44816 6.21485 -0.0245172 0.0036739 -0.0214972
27 2 3.44218 6.13933 3.91358 0.0101306 -0.000813671 0.0169776
28 1 9.34939 7.2024 4.12006 -0.000559874 -0.00757215 0.00516267
29 2 9.29316 6.86642 5.07768 -0.0100188 -0.00173282 0.00998741
30 2 8.92557 8.09444 4.20158 -0.021149 0.00605203 -0.00207292
31 1 3.80164 10.9994 5.91357 0.00618429 -0.000865259 0.00093274
32 2 2.99593 12.6153 5.52705 0.0109972 0.0230385 0.00572421
33 2 4.3055 10.8373 5.0434 0.00496264 0.0108856 -0.00021785
34 1 7.60673 5.10267 8.86033 -0.0019772 -0.00388071 0.00505149
35 2 7.88632 4.16568 8.8773 0.00365135 0.00509444 0.0128951
36 2 7.35074 5.30384 9.78082 -0.00975203 -0.0161201 0.000135086
37 1 8.23939 12.1335 9.96101 -0.00614304 -0.000729295 -0.00466228
38 2 9.52138 12.9086 8.79704 -0.010513 0.026027 -0.016339
39 2 8.68839 11.4813 10.6087 -0.00152716 0.00648906 0.00605808
40 1 12.5091 13.4906 5.49767 -0.00198031 0.0081277 -0.00383928
41 2 3.98567 4.72612 4.39334 0.0116372 -0.0158944 -0.00880984
42 2 11.5651 13.3081 5.16525 0.00118245 0.0103279 -0.000648574
43 1 4.19686 5.5551 3.94764 0.00303543 0.0083105 -0.00168254
44 2 12.4095 7.9771 4.89207 0.034179 -0.0222733 0.00915916
45 2 7.23101 12.8699 4.20759 -0.013789 -0.01496 -0.00441985
46 1 9.893 13.0863 7.93378 0.00877053 -0.000124243 -0.00334637
47 2 8.61388 12.7565 7.03767 0.0307787 -0.00499896 0.00108721
48 2 10.3253 12.2025 7.77765 -0.00362614 0.00162319 -0.000194373
49 1 10.3071 6.58381 8.66269 -0.00182059 0.000810809 0.0104212
50 2 9.48652 6.08026 8.5824 -0.0164622 0.00585449 0.0156682
51 2 9.99278 7.20024 9.35248 0.000886655 -0.031105 -0.0217864
52 1 9.25037 10.2275 4.44195 -0.00417862 -0.00531126 2.04094e-05
53 2 8.92479 9.76656 5.26775 -0.021704 -0.0173302 0.000834639
54 2 9.63044 11.1203 4.71987 -0.0103313 -0.0156853 0.00673742
55 1 5.11324 10.7928 3.56644 0.00176338 -0.00708406 0.00299579
56 2 5.64872 9.95479 3.26332 -0.020637 -0.0072658 0.00581404
57 2 4.30504 10.6732 2.9981 -0.0104893 -0.0135598 -0.0388935
58 1 5.95268 10.7731 9.5621 0.00562578 -0.00270847 1.65102e-05
59 2 5.27842 12.9591 7.66209 0.0111941 0.00627997 -0.0231004
60 2 7.39953 11.6578 9.67252 -0.0106555 -0.00501088 -0.00346173
61 1 7.93332 5.29779 6.10234 0.00229074 0.00093467 0.00223256
62 2 7.83944 5.36974 7.0543 -0.0179978 0.0244058 0.0202579
63 2 7.14317 5.78735 5.82898 -0.0137996 0.0121122 0.00121623
64 1 5.67975 12.2085 7.40787 -0.000111472 -0.00364438 0.00283246
65 2 4.5807 11.4831 6.52357 -0.0258181 0.00729622 0.00108948
66 2 3.64826 4.58983 6.86259 0.00117382 0.0111787 0.0184344
67 1 11.5166 10.6089 7.82543 0.000448377 -0.00626052 0.000769445
68 2 12.1981 10.5462 7.11584 -0.00633911 -0.00118243 0.0100709
69 2 11.7707 9.95486 8.51905 -0.00526551 0.0103885 -0.00345691
70 1 10.1804 12.8261 4.22776 0.00649681 0.00151273 0.0026134
71 2 9.98461 13.1083 3.31557 0.0489726 0.0306191 -0.00320762
72 2 9.42084 13.195 4.66668 0.00515994 0.0219792 -0.0128506
73 1 9.32947 8.84246 7.03058 -0.000200758 0.00345256 0.00181934
74 2 9.63859 7.93486 7.27917 -0.0119324 0.00717242 0.0145015
75 2 10.089 9.41528 7.30584 -0.0086763 0.0322 0.0101906
76 1 12.3644 4.99687 10.0435 -0.00622724 -0.00428667 0.00215976
77 2 11.7486 5.62174 9.49416 -0.0177296 -0.00780619 0.0149383
78 2 4.07375 5.84866 10.6619 0.0065009 0.0128604 -0.0138013
79 1 12.4706 8.77429 9.68303 -0.00579291 -0.003906 -0.00436059
80 2 12.5778 9.10476 10.6672 -0.0465174 -0.0270438 -0.0165237
81 2 5.80165 11.2026 8.66694 0.0318862 0.00638972 0.00902364
82 1 7.4041 5.53162 11.4403 -0.00245771 0.000644109 -0.00578722
83 2 6.98054 4.79545 11.9101 0.00684679 -0.0115689 -0.0153071
84 2 6.79978 6.34594 11.6367 0.018648 -0.000175412 -0.0115844
85 1 10.1636 13.6986 11.2764 0.00883943 0.0071695 -0.00121338
86 2 9.39181 4.46987 11.269 -0.00700441 -0.0044573 0.0231053
87 2 11.7062 4.40775 10.563 -0.0102729 0.00609293 -0.00381544
88 1 7.99997 12.5858 6.17181 -0.00293818 -0.000339361 -0.00414269
89 2 6.94444 12.4863 6.8176 -0.00469368 -0.0295001 0.00619276
90 2 7.90777 13.5543 5.84481 -0.0115592 0.02443 -0.00660647
91 1 5.45375 6.77468 6.08857 -0.00996561 0.00456064 -0.00998721
92 2 4.16671 7.94542 6.32775 -0.0114629 0.00477217 0.000634725
93 2 5.09557 6.31492 6.85573 0.0135354 -0.00499294 -0.00130264
94 1 4.12879 4.5982 7.69031 0.00129628 0.00451146 0.00263363
95 2 3.48552 4.72342 8.39062 -0.00927358 0.0214685 -0.0112137
96 2 4.8633 6.32246 5.41622 0.0115709 -0.00366439 -0.01038
ITEM: TIMESTEP
1
ITEM: NUMBER OF ATOMS
96
ITEM: BOX BOUNDS pp pp pp
2.9236100000000000e+00 1.2773600000000000e+01
4.0306300000000004e+00 1.3880599999999999e+01
2.1372399999999998e+00 1.1987200000000000e+01
ITEM: ATOMS id type x y z vx vy vz
1 1 7.04607 13.0351 3.30117 -0.00601772 0.00303918 -0.00033949
2 2 6.55247 12.2374 3.04984 0.0295969 0.0287857 0.0100171
3 2 9.68906 12.831 10.9969 -0.00689096 0.000363995 -0.00945324
4 1 12.2902 9.78385 2.33178 0.00212922 0.000618018 0.000396572
5 2 11.3907 10.1399 2.15406 0.0208285 0.00795359 0.00389526
6 2 12.2135 9.04035 2.98729 -0.0138812 -0.00366748 0.00940061
7 1 12.1061 7.58158 4.00521 -0.000322958 -0.00347424 -0.00213283
8 2 11.1417 7.40728 4.16294 0.0268168 0.000660653 0.0185524
9 2 8.18318 8.38577 8.71249 -0.00111319 -0.0170853 0.0146455
10 1 7.47304 8.27368 9.38782 -0.00284009 -0.00189002 -0.000413524
11 2 6.99866 7.51852 9.01445 0.0305351 0.00670099 -0.00218146
12 2 6.33742 9.85157 9.38249 -0.0119358 -0.0227733 0.00405845
13 1 6.24483 8.69652 11.8801 0.0148609 0.0019967 0.00605198
14 2 6.37411 9.31192 11.1493 0.0245483 -0.00965557 -0.00447135
15 2 5.8823 7.91946 11.3731 -0.00981206 0.00570317 0.00834074
16 1 9.59637 7.74825 11.1492 -0.000191997 0.00043661 0.00314628
17 2 9.52453 7.39001 2.19365 -0.0332866 -0.00208839 0.00143459
18 2 8.70593 7.7403 10.7378 0.0346343 0.0132336 -0.000776142
19 1 4.8149 6.28221 11.1188 -4.49346e-05 0.00503997 0.00364605
20 2 4.76203 5.88622 2.17372 -0.00421768 0.00424137 -0.0276899
21 2 11.8358 8.02165 9.71748 -0.00301256 -0.0185032 -0.0165127
22 1 9.61941 10.5541 11.6436 0.000264699 0.00276229 -0.00321894
23 2 9.30387 10.4782 2.801 0.018896 0.00317654 0.00894386
24 2 9.55379 9.59345 11.4195 -0.0312119 0.0053556 -0.0210807
25 1 3.27529 8.42986 6.33528 -0.00395018 -0.00585515 -0.00577623
26 2 3.55369 9.44848 6.2044 -0.0270569 -0.00248361 -0.0202485
27 2 3.44596 6.13915 3.92231 0.00475129 0.000244867 0.0179064
28 1 9.3491 7.19865 4.12278 -0.000633915 -0.00740604 0.0057212
29 2 9.28787 6.86609 5.08056 -0.0110856 0.000387306 0.00146885
30 2 8.91577 8.09638 4.20052 -0.0177193 0.00106342 -0.00220792
31 1 3.80486 10.999 5.91406 0.00664772 -0.000601073 0.00100069
32 2 3.0029 12.6254 5.53039 0.0167124 0.0171637 0.00758284
33 2 4.30775 10.8427 5.04304 0.00420607 0.0107445 -0.00132351
34 1 7.60577 5.10069 8.86277 -0.00186123 -0.00402326 0.00469838
35 2 7.88814 4.1685 8.88386 0.00375875 0.00583756 0.0132073
36 2 7.34544 5.29607 9.78183 -0.0115751 -0.0147633 0.00401704
37 1 8.23632 12.1331 9.95869 -0.00613122 -0.000912306 -0.00462678
38 2 9.51533 12.9221 8.79018 -0.013709 0.0277744 -0.0108693
39 2 8.6871 11.4848 10.6112 -0.00376218 0.00746855 0.00378152
40 1 12.508 13.4947 5.49569 -0.00238941 0.00838929 -0.00405528
41 2 3.99031 4.71811 4.38913 0.00702606 -0.0155577 -0.00829473
42 2 11.5664 13.3144 5.16515 0.00359597 0.014577 0.0001517
43 1 4.1985 5.55923 3.94677 0.00353846 0.0081597 -0.00178776
44 2 12.4272 7.96609 4.89698 0.0366181 -0.0218103 0.0102673
45 2 7.22421 12.8623 4.20574 -0.0132417 -0.01529 -0.00266995
46 1 9.8974 13.0861 7.93206 0.00884241 -0.000466211 -0.00356046
47 2 8.63081 12.7539 7.03869 0.0361337 -0.00522838 0.00233864
48 2 10.324 12.2039 7.77703 -0.0014148 0.00372088 -0.00208722
49 1 10.3061 6.58425 8.66793 -0.00202758 0.000847881 0.0104443
50 2 9.47857 6.08228 8.58964 -0.0151259 0.00210003 0.013075
51 2 9.99415 7.18487 9.34161 0.00422511 -0.0288972 -0.0202721
52 1 9.24827 10.2248 4.44203 -0.0042319 -0.00534822 0.000321909
53 2 8.91478 9.75889 5.26768 -0.0182025 -0.0131897 -0.00131797
54 2 9.62451 11.1112 4.72309 -0.0132475 -0.0202322 0.00628285
55 1 5.11413 10.7891 3.56782 0.00173029 -0.00765115 0.00248064
56 2 5.63745 9.95287 3.26703 -0.0239849 -0.000728339 0.00902905
57 2 4.30039 10.6668 2.97939 -0.00735108 -0.01182 -0.0351822
58 1 5.95556 10.7716 9.56217 0.00590973 -0.00316023 0.000266167
59 2 5.28291 12.9649 7.65121 0.00690844 0.0168443 -0.0204609
60 2 7.39401 11.6554 9.67099 -0.0112577 -0.00441761 -0.00256984
61 1 7.93448 5.29834 6.1034 0.0022849 0.00130199 0.00207419
62 2 7.83103 5.38146 7.06596 -0.0154872 0.0222748 0.0254161
63 2 7.13564 5.79356 5.82857 -0.0156065 0.012249 -0.00272802
64 1 5.67985 12.2065 7.40912 0.000501389 -0.00437393 0.00216292
65 2 4.5674 11.4865 6.52437 -0.0270782 0.00634743 0.00215094
66 2 3.64813 4.59501 6.87137 -0.00178969 0.00953658 0.0160902
67 1 11.5168 10.6058 7.82578 0.000312909 -0.00624751 0.000642718
68 2 12.1945 10.5456 7.12166 -0.00771141 -0.00142338 0.0127501
69 2 11.7686 9.96001 8.51735 -0.00310037 0.0097928 -0.00292769
70 1 10.1836 12.8269 4.22904 0.00642502 0.0015266 0.00249737
71 2 10.0097 13.1235 3.31359 0.0515715 0.0299279 -0.00444416
72 2 9.42313 13.2061 4.66097 0.00407919 0.0224139 -0.0100549
73 1 9.32943 8.84415 7.03152 2.80466e-05 0.00333535 0.0019449
74 2 9.63242 7.93939 7.28629 -0.012477 0.0109194 0.0140588
75 2 10.084 9.43109 7.31063 -0.0113594 0.0305525 0.00889724
76 1 12.3611 4.99476 10.0445 -0.00684728 -0.00414384 0.00200086
77 2 11.7408 5.61641 9.50291 -0.0134629 -0.0132054 0.0197532
78 2 4.07681 5.85517 10.6546 0.00570189 0.0131481 -0.0152542
79 1 12.4677 8.77234 9.68094 -0.00590117 -0.00394226 -0.00403944
80 2 12.5542 9.09086 10.6577 -0.047583 -0.0281468 -0.0210263
81 2 5.81723 11.2062 8.67065 0.030392 0.00811594 0.00570453
82 1 7.40282 5.53206 11.4375 -0.00263819 0.00107584 -0.00545407
83 2 6.98415 4.78983 11.9025 0.00744165 -0.0107651 -0.014978
84 2 6.81017 6.34361 11.6303 0.0224115 -0.00879941 -0.0136772
85 1 10.1679 13.7021 11.2758 0.00824448 0.00686881 -0.00132769
86 2 9.38921 4.46727 11.2806 -0.00316944 -0.0058741 0.0232955
87 2 11.702 4.41194 10.5601 -0.00653627 0.0102126 -0.00728807
88 1 7.99848 12.5855 6.16981 -0.00300213 -0.000687644 -0.00385093
89 2 6.93899 12.4708 6.82137 -0.0166954 -0.0319935 0.0087968
90 2 7.90153 13.568 5.84061 -0.013467 0.0293457 -0.00955168
91 1 5.44867 6.77692 6.08358 -0.0103353 0.00442618 -0.00994996
92 2 4.16011 7.9479 6.32798 -0.0144581 0.00500764 0.000255897
93 2 5.10302 6.31243 6.8563 0.0161767 -0.00492756 0.00333932
94 1 4.12951 4.60049 7.69163 0.00158619 0.00464923 0.00268499
95 2 3.48043 4.73407 8.38551 -0.0109693 0.0211206 -0.00903819
96 2 4.87002 6.32132 5.41005 0.0149562 -0.00111706 -0.0144373
ITEM: TIMESTEP
2
ITEM: NUMBER OF ATOMS
96
ITEM: BOX BOUNDS pp pp pp
2.9236100000000000e+00 1.2773600000000000e+01
4.0306300000000004e+00 1.3880599999999999e+01
2.1372399999999998e+00 1.1987200000000000e+01
ITEM: ATOMS id type x y z vx vy vz
1 1 7.04303 13.0366 3.30094 -0.00609616 0.00306006 -0.000547602
2 2 6.56729 12.2522 3.055 0.0286829 0.0290095 0.00980041
3 2 9.68735 12.8334 10.9928 0.000304539 0.00925759 -0.00652561
4 1 12.2913 9.78418 2.33197 0.00230167 0.000670717 0.000378847
5 2 11.401 10.1438 2.15628 0.0199937 0.00761219 0.00484003
6 2 12.2062 9.03827 2.99191 -0.015128 -0.00434437 0.00882614
7 1 12.1059 7.57987 4.00418 -0.000355154 -0.00338238 -0.00201115
8 2 11.1548 7.40746 4.17159 0.0248142 -4.16362e-05 0.0162032
9 2 8.18192 8.3774 8.72032 -0.00348759 -0.0161552 0.0163941
10 1 7.47165 8.27273 9.38754 -0.0027264 -0.00187146 -0.000672001
11 2 7.01415 7.52202 9.0137 0.0307512 0.00651255 -0.00105276
12 2 6.33112 9.84128 9.38461 -0.013313 -0.0180607 0.00435194
13 1 6.25223 8.69747 11.8831 0.0147386 0.00179988 0.00580367
14 2 6.38652 9.30714 11.1473 0.0251022 -0.00945624 -0.00318869
15 2 5.87753 7.92304 11.3783 -0.00916988 0.00866866 0.0125686
16 1 9.5963 7.74852 11.1507 -4.25821e-05 0.000648622 0.00311445
17 2 9.5074 7.38881 2.19441 -0.0350379 -0.00270337 0.00169282
18 2 8.72309 7.74678 10.7379 0.0329565 0.0126746 0.00063179
19 1 4.81489 6.28471 11.1206 -1.48632e-05 0.0049739 0.00375965
20 2 4.76 5.88884 2.1595 -0.00397785 0.00575455 -0.0281126
21 2 11.8348 8.01299 9.70909 -0.00115211 -0.0160692 -0.0172914
22 1 9.61951 10.5554 11.6421 0.00015342 0.00236177 -0.00266673
23 2 9.31382 10.4811 2.80409 0.0209144 0.00816677 0.00316384
24 2 9.53841 9.59604 11.4077 -0.0302643 0.00525381 -0.0257011
25 1 3.2734 8.42698 6.33236 -0.00366003 -0.00564452 -0.00587704
26 2 3.53956 9.44568 6.1946 -0.0292634 -0.008636 -0.0189538
27 2 3.44693 6.13957 3.93149 -0.00092569 0.00145519 0.0187618
28 1 9.34876 7.19499 4.12578 -0.000755996 -0.00717085 0.00627222
29 2 9.28207 6.86681 5.07915 -0.0120726 0.00237239 -0.0068449
30 2 8.90785 8.0955 4.19937 -0.0137614 -0.00491753 -0.00244052
31 1 3.80829 10.9988 5.91457 0.00702945 -0.000347906 0.00104936
32 2 3.01264 12.6325 5.53463 0.0219261 0.0112327 0.00928356
33 2 4.30971 10.848 5.04208 0.00374495 0.0105618 -0.00256578
34 1 7.60487 5.09865 8.86503 -0.0017519 -0.00413951 0.00433282
35 2 7.89008 4.17152 8.89051 0.00408823 0.00586932 0.013224
36 2 7.33916 5.28908 9.78484 -0.0135822 -0.0130992 0.00793299
37 1 8.23326 12.1326 9.95638 -0.00611411 -0.00109013 -0.0045907
38 2 9.50767 12.9364 8.78617 -0.0168031 0.0289761 -0.00521369
39 2 8.68463 11.4888 10.6125 -0.00612973 0.00832248 0.00143678
40 1 12.5067 13.499 5.49361 -0.0027386 0.00868518 -0.00425228
41 2 3.9927 4.71056 4.38505 0.00268582 -0.0140456 -0.00829952
42 2 11.5687 13.3227 5.1654 0.00549166 0.0181763 0.000691512
43 1 4.2004 5.56326 3.94585 0.00404327 0.00791979 -0.00184785
44 2 12.4461 7.95529 4.90234 0.038726 -0.0214378 0.010869
45 2 7.21777 12.8546 4.20492 -0.0123455 -0.015326 -0.000319011
46 1 9.90184 13.0858 7.93022 0.00890029 -0.000732591 -0.00380432
47 2 8.65001 12.7513 7.04001 0.0396057 -0.0053556 0.00213633
48 2 10.3239 12.2062 7.77556 0.00101893 0.00505321 -0.00352526
49 1 10.3051 6.58466 8.67313 -0.0022119 0.000711837 0.010292
50 2 9.47139 6.08236 8.59547 -0.0133984 -0.00192577 0.0100551
51 2 9.99701 7.17134 9.33221 0.006823 -0.0236673 -0.0158908
52 1 9.24614 10.2222 4.44227 -0.00431962 -0.0054523 0.000622248
53 2 8.90659 9.75337 5.26643 -0.0145216 -0.0088704 -0.00371962
54 2 9.61719 11.1001 4.72615 -0.015787 -0.0238468 0.00613949
55 1 5.11497 10.7851 3.56892 0.00154488 -0.00819317 0.00189097
56 2 5.62474 9.95406 3.27235 -0.0262357 0.00488992 0.0121587
57 2 4.29769 10.6614 2.96292 -0.00295323 -0.00953935 -0.0300985
58 1 5.95859 10.7699 9.56237 0.00619706 -0.00365803 0.000534756
59 2 5.28533 12.9759 7.64163 0.00313277 0.0267854 -0.0180321
60 2 7.38827 11.6534 9.66995 -0.0115088 -0.00381142 -0.00149051
61 1 7.9356 5.29909 6.10441 0.00216739 0.0017584 0.00203315
62 2 7.82395 5.39201 7.07972 -0.0126761 0.0197126 0.0284913
63 2 7.12756 5.7996 5.82625 -0.0160042 0.0113967 -0.00631757
64 1 5.68025 12.2041 7.41003 0.00110394 -0.00504287 0.0015211
65 2 4.55362 11.4894 6.52572 -0.0277589 0.0053139 0.00324311
66 2 3.64647 4.59937 6.87868 -0.00484971 0.00790207 0.0127381
67 1 11.5169 10.6027 7.82607 9.30725e-05 -0.00617223 0.000513927
68 2 12.1904 10.5448 7.12859 -0.00817931 -0.00174515 0.0144544
69 2 11.7676 9.96465 8.51612 -0.000678395 0.00841481 -0.00155899
70 1 10.1868 12.8276 4.23026 0.00633799 0.00157024 0.00235757
71 2 10.0362 13.1382 3.31113 0.0541495 0.0290345 -0.00506053
72 2 9.42492 13.2174 4.65663 0.00323848 0.0225933 -0.00750499
73 1 9.3295 8.8458 7.03252 0.000248512 0.00328785 0.00205862
74 2 9.62611 7.94578 7.29323 -0.0124855 0.0144633 0.0138023
75 2 10.0776 9.44583 7.31474 -0.014318 0.0280214 0.00748783
76 1 12.3576 4.99273 10.0455 -0.00742888 -0.00398107 0.00183341
77 2 11.7351 5.60853 9.51391 -0.00922981 -0.0177478 0.0237453
78 2 4.07945 5.86181 10.6466 0.00491048 0.0134086 -0.0166172
79 1 12.4647 8.77035 9.67899 -0.00605563 -0.00406404 -0.00379429
80 2 12.5302 9.07661 10.6462 -0.0479293 -0.0284232 -0.0240949
81 2 5.83204 11.2107 8.67264 0.0288236 0.00961763 0.00230176
82 1 7.40146 5.5327 11.4348 -0.00272211 0.00143173 -0.00514866
83 2 6.98798 4.78468 11.8951 0.00770175 -0.00973375 -0.0144441
84 2 6.82219 6.33714 11.623 0.0249715 -0.0163812 -0.0152495
85 1 10.1718 13.7055 11.2751 0.00757035 0.00650544 -0.00144415
86 2 9.38864 4.464 11.2923 0.000948026 -0.0071103 0.0234426
87 2 11.6997 4.41796 10.5557 -0.00308939 0.0132127 -0.00983679
88 1 7.99697 12.5851 6.16796 -0.00301225 -0.000948416 -0.00355562
89 2 6.92774 12.4543 6.8264 -0.0277864 -0.0337824 0.0113454
90 2 7.8943 13.5836 5.83526 -0.0153564 0.0323619 -0.0112205
91 1 5.44341 6.77911 6.07862 -0.0106326 0.00430693 -0.00985815
92 2 4.15225 7.95043 6.32801 -0.0163509 0.00487804 -0.000135667
93 2 5.11175 6.30999 6.85907 0.0186013 -0.0048011 0.00731058
94 1 4.13038 4.60285 7.69299 0.00187005 0.00479383 0.00278053
95 2 3.47455 4.74454 8.38158 -0.0123259 0.0207183 -0.00661054
96 2 4.87826 6.32134 5.40178 0.0176183 0.000918799 -0.0187293
ITEM: TIMESTEP
3
ITEM: NUMBER OF ATOMS
96
ITEM: BOX BOUNDS pp pp pp
2.9236100000000000e+00 1.2773600000000000e+01
4.0306300000000004e+00 1.3880599999999999e+01
2.1372399999999998e+00 1.1987200000000000e+01
ITEM: ATOMS id type x y z vx vy vz
1 1 7.03998 13.0382 3.30062 -0.00606172 0.00325773 -0.000684454
2 2 6.58115 12.2664 3.05964 0.0256948 0.0260613 0.00784478
3 2 9.68937 12.8403 10.9903 0.00776826 0.0181211 -0.00355839
4 1 12.2925 9.78452 2.33216 0.00250869 0.000664949 0.000430694
5 2 11.4107 10.1475 2.1589 0.0182936 0.00766563 0.00554718
6 2 12.1984 9.036 2.99612 -0.0161515 -0.00443991 0.00776557
7 1 12.1057 7.5782 4.0032 -0.000268231 -0.00326213 -0.00187558
8 2 11.1665 7.40723 4.17914 0.0214398 -0.000946505 0.0141783
9 2 8.17969 8.36962 8.72888 -0.00485623 -0.0147524 0.0175195
10 1 7.47032 8.27181 9.38714 -0.0026092 -0.00177848 -0.000863234
11 2 7.02941 7.52503 9.0134 0.0296605 0.00470998 -0.000423779
12 2 6.32411 9.83351 9.38684 -0.0147177 -0.0128316 0.00450654
13 1 6.25957 8.69832 11.8859 0.0146103 0.00159707 0.00553393
14 2 6.39921 9.30246 11.1461 0.0256828 -0.00927199 -0.00172448
15 2 5.87313 7.92813 11.3857 -0.00839953 0.0116039 0.0168926
16 1 9.59633 7.74889 11.1523 0.000217585 0.000859796 0.00317396
17 2 9.48949 7.38731 2.19534 -0.036419 -0.00326073 0.00199635
18 2 8.73889 7.75298 10.7385 0.0292432 0.0120986 0.00089677
19 1 4.81489 6.28719 11.1225 1.84328e-05 0.00497016 0.00371958
20 2 4.75806 5.89198 2.14561 -0.00390081 0.00628926 -0.026392
21 2 11.8347 8.00558 9.70019 0.000798534 -0.0136012 -0.0184984
22 1 9.61956 10.5564 11.6409 3.46357e-05 0.00195943 -0.00214525
23 2 9.32479 10.4864 2.80417 0.0229299 0.012719 -0.00298656
24 2 9.52352 9.5987 11.3938 -0.0292589 0.00569454 -0.0295919
25 1 3.27163 8.42422 6.3294 -0.00348118 -0.00542522 -0.00596909
26 2 3.52443 9.43985 6.18545 -0.0310685 -0.0143846 -0.0176878
27 2 3.44504 6.14061 3.94107 -0.00649329 0.0025984 0.019522
28 1 9.34834 7.19147 4.12905 -0.000907947 -0.0068874 0.00677473
29 2 9.2758 6.86846 5.07371 -0.0130128 0.00399656 -0.014315
30 2 8.90201 8.09146 4.19808 -0.00953471 -0.0113415 -0.00272962
31 1 3.81189 10.9987 5.91511 0.00732974 -0.000106944 0.00107601
32 2 3.02482 12.6366 5.53968 0.0262578 0.0058204 0.0107598
33 2 4.3115 10.8533 5.04048 0.00354069 0.0103834 -0.00375646
34 1 7.60402 5.09655 8.8671 -0.00165352 -0.00422357 0.00397158
35 2 7.89223 4.17437 8.89709 0.00462964 0.00521923 0.0129884
36 2 7.33186 5.28297 9.78976 -0.0156639 -0.0112477 0.0115195
37 1 8.23021 12.132 9.9541 -0.00609395 -0.00125385 -0.00456301
38 2 9.49852 12.9511 8.78497 -0.0195512 0.0296009 0.000101114
39 2 8.68097 11.4931 10.6126 -0.00843933 0.00905996 -0.000826457
40 1 12.5053 13.5034 5.49144 -0.00299541 0.00898511 -0.00442146
41 2 3.99299 4.70407 4.38083 -0.0013221 -0.0114035 -0.00879875
42 2 11.5718 13.3326 5.16585 0.00675845 0.020966 0.000922398
43 1 4.20254 5.56715 3.94492 0.00452032 0.00761071 -0.00186037
44 2 12.466 7.94465 4.90785 0.04033 -0.0212146 0.0108279
45 2 7.21186 12.847 4.20542 -0.0110476 -0.0149599 0.00263958
46 1 9.9063 13.0854 7.92825 0.00893183 -0.000923798 -0.00404774
47 2 8.67042 12.7486 7.04083 0.0410042 -0.00538012 0.000308914
48 2 10.325 12.209 7.7735 0.00362306 0.00561355 -0.0044073
49 1 10.3039 6.58496 8.67822 -0.00237903 0.000415458 0.00997763
50 2 9.46517 6.08035 8.59969 -0.0113038 -0.00616069 0.00666506
51 2 10.001 7.1612 9.32572 0.00872775 -0.0156592 -0.00883367
52 1 9.24395 10.2194 4.44266 -0.00444167 -0.00562977 0.00090363
53 2 8.90026 9.75002 5.26396 -0.0108309 -0.00461483 -0.00610542
54 2 9.60872 11.0874 4.72923 -0.0177959 -0.0261987 0.00636525
55 1 5.11568 10.7809 3.56971 0.00122084 -0.00866895 0.00125931
56 2 5.61121 9.95776 3.27919 -0.0271332 0.00908246 0.0150498
57 2 4.29744 10.6572 2.94929 0.00222612 -0.00682793 -0.0240071
58 1 5.96176 10.768 9.5627 0.00647431 -0.00417634 0.000810168
59 2 5.28605 12.9917 7.63317 0.0002977 0.0352264 -0.0160687
60 2 7.3825 11.6516 9.66949 -0.011457 -0.00318368 -0.000279037
61 1 7.93665 5.3001 6.10544 0.00194482 0.00229372 0.00210968
62 2 7.81835 5.40118 7.09446 -0.00964663 0.0167297 0.0293613
63 2 7.11964 5.80496 5.82225 -0.0150432 0.00959634 -0.00939945
64 1 5.68095 12.2014 7.41064 0.00167263 -0.00559076 0.000921846
65 2 4.53964 11.4918 6.52761 -0.0279416 0.00419031 0.0042367
66 2 3.64328 4.60291 6.88411 -0.00781398 0.00626061 0.00874279
67 1 11.5169 10.5996 7.8263 -0.000209165 -0.0060428 0.000397467
68 2 12.1863 10.5438 7.13611 -0.00765731 -0.00212024 0.0150606
69 2 11.7679 9.96842 8.51579 0.00191443 0.00639479 0.000545778
70 1 10.19 12.8284 4.2314 0.00623233 0.00165163 0.00219365
71 2 10.0639 13.1525 3.30853 0.0566285 0.027911 -0.00491566
72 2 9.42637 13.2287 4.65347 0.00277722 0.0224446 -0.0053346
73 1 9.32968 8.84744 7.03358 0.000443467 0.00331335 0.00215065
74 2 9.61994 7.95385 7.30009 -0.0119254 0.0175005 0.0138067
75 2 10.0697 9.45911 7.31812 -0.0173255 0.0248361 0.00604698
76 1 12.3537 4.99078 10.0464 -0.00792942 -0.00380423 0.00166066
77 2 11.7316 5.59866 9.52666 -0.00537012 -0.0210018 0.0265554
78 2 4.08172 5.86858 10.638 0.00423446 0.0136899 -0.0177918
79 1 12.4616 8.76828 9.67714 -0.00624364 -0.00426233 -0.00364138
80 2 12.5063 9.06244 10.6336 -0.0476157 -0.0278051 -0.0254751
81 2 5.84606 11.2159 8.67295 0.027239 0.010751 -0.000897024
82 1 7.40009 5.53349 11.4323 -0.00268656 0.00168416 -0.00487956
83 2 6.99185 4.7801 11.8881 0.00761253 -0.00861913 -0.013673
84 2 6.83514 6.32722 11.6151 0.0259822 -0.0223165 -0.0162027
85 1 10.1755 13.7086 11.2743 0.00685769 0.00611165 -0.00154427
86 2 9.39016 4.46016 11.304 0.00505685 -0.00800928 0.0235467
87 2 11.6989 4.42516 10.5503 -0.00013901 0.0147735 -0.0111934
88 1 7.99547 12.5846 6.16626 -0.00296991 -0.00109741 -0.00325369
89 2 6.9112 12.437 6.83271 -0.0380232 -0.0349586 0.013919
90 2 7.88617 13.6003 5.82939 -0.0170343 0.0333106 -0.0115568
91 1 5.43803 6.78123 6.07372 -0.0108537 0.00420303 -0.00970569
92 2 4.14376 7.95278 6.32784 -0.0169348 0.00426988 -0.000522543
93 2 5.12162 6.30763 6.86361 0.0207616 -0.00459681 0.0102957
94 1 4.13138 4.60528 7.69441 0.00212599 0.00494619 0.00290966
95 2 3.4681 4.75479 8.3789 -0.0131541 0.0202109 -0.0041483
96 2 4.88764 6.32224 5.39132 0.0195472 0.00236772 -0.0230882
ITEM: TIMESTEP
4
ITEM: NUMBER OF ATOMS
96
ITEM: BOX BOUNDS pp pp pp
2.9236100000000000e+00 1.2773600000000000e+01
4.0306300000000004e+00 1.3880599999999999e+01
2.1372399999999998e+00 1.1987200000000000e+01
ITEM: ATOMS id type x y z vx vy vz
1 1 7.03697 13.0399 3.30026 -0.00591871 0.00362348 -0.000735611
2 2 6.59298 12.2782 3.06284 0.0206214 0.0199107 0.00393474
3 2 9.69512 12.8515 10.9893 0.0149887 0.0261766 -0.000801872
4 1 12.2938 9.78484 2.3324 0.00274085 0.000602904 0.000550058
5 2 11.4193 10.1514 2.16182 0.0158617 0.00809559 0.00601552
6 2 12.1901 9.03383 2.99968 -0.0169101 -0.00397895 0.00623417
7 1 12.1056 7.5766 4.0023 -7.19732e-05 -0.00311839 -0.00172712
8 2 11.1763 7.40651 4.18577 0.0169962 -0.00197545 0.0125487
9 2 8.17706 8.36265 8.73784 -0.00495801 -0.0128209 0.0178492
10 1 7.46904 8.27095 9.38667 -0.00250103 -0.00161146 -0.000974389
11 2 7.04381 7.52673 9.01327 0.0272321 0.0012176 -0.000298465
12 2 6.31641 9.82845 9.38911 -0.0160219 -0.00741075 0.00447346
13 1 6.26684 8.69906 11.8886 0.0144864 0.00140168 0.00526091
14 2 6.4122 9.29787 11.1456 0.0262837 -0.00908488 -0.000178447
15 2 5.86913 7.93465 11.3952 -0.00762924 0.0142472 0.0210837
16 1 9.59652 7.74938 11.1539 0.000571807 0.00106277 0.00332135
17 2 9.47098 7.38555 2.19641 -0.0373906 -0.00371363 0.0022123
18 2 8.75234 7.75888 10.7388 0.0237239 0.0115567 4.01981e-05
19 1 4.8149 6.28968 11.1244 5.01836e-05 0.00502652 0.00352521
20 2 4.7561 5.89513 11.9831 -0.00402778 0.00582734 -0.0226146
21 2 11.8356 7.99939 9.69059 0.00269205 -0.0112973 -0.0201202
22 1 9.61955 10.5573 11.6399 -8.1781e-05 0.00156337 -0.00168646
23 2 9.33675 10.4938 2.80111 0.0248066 0.0166734 -0.00920149
24 2 9.50915 9.60173 11.3781 -0.028206 0.00669113 -0.0325641
25 1 3.26992 8.42156 6.32639 -0.00342318 -0.00521447 -0.00604631
26 2 3.50849 9.43129 6.17691 -0.0324186 -0.019361 -0.0165276
27 2 3.44044 6.14217 3.95101 -0.0115599 0.00347813 0.0201497
28 1 9.34785 7.18811 4.13256 -0.00106882 -0.0065778 0.00718863
29 2 9.26906 6.8708 5.06483 -0.0139524 0.00504383 -0.0203173
30 2 8.89832 8.08416 4.19664 -0.00531583 -0.0176414 -0.00303814
31 1 3.81562 10.9987 5.91565 0.00755072 0.000121074 0.00107748
32 2 3.0389 12.6383 5.54539 0.0293747 0.00143039 0.011947
33 2 4.31325 10.8584 5.03832 0.00354481 0.0102511 -0.00471737
34 1 7.60322 5.09442 8.869 -0.00156905 -0.00427344 0.00363095
35 2 7.89471 4.17674 8.9035 0.00534369 0.00399275 0.0125547
36 2 7.3235 5.27783 9.79636 -0.0177048 -0.00933312 0.0144372
37 1 8.22716 12.1313 9.95182 -0.00607239 -0.00139543 -0.00455137
38 2 9.48812 12.966 8.78627 -0.0217146 0.0296284 0.00458513
39 2 8.67619 11.4978 10.6117 -0.0105075 0.00970255 -0.00286712
40 1 12.5037 13.508 5.48919 -0.00313339 0.00926088 -0.00455535
41 2 3.99137 4.69916 4.37625 -0.00495002 -0.007779 -0.00972314
42 2 11.5755 13.3436 5.16632 0.00733711 0.0228375 0.000822332
43 1 4.20492 5.57087 3.94399 0.00494173 0.0072571 -0.00182623
44 2 12.4864 7.93408 4.91317 0.0412681 -0.0211823 0.0100365
45 2 7.20672 12.8397 4.20756 -0.0092695 -0.0140389 0.00622893
46 1 9.91077 13.0849 7.92617 0.00892518 -0.00104525 -0.00426294
47 2 8.69102 12.7459 7.04032 0.0403753 -0.00530285 -0.00321837
48 2 10.3275 12.2118 7.77116 0.00632725 0.00546443 -0.0046621
49 1 10.3027 6.58507 8.68311 -0.00254694 -7.54538e-06 0.00953872
50 2 9.46009 6.0762 8.60214 -0.00869677 -0.0102144 0.00318267
51 2 10.0057 7.15568 9.32337 0.0100115 -0.00577092 0.000131727
52 1 9.2417 10.2165 4.44318 -0.00459555 -0.00588186 0.00114988
53 2 8.89576 9.74876 5.26033 -0.00729908 -0.000658362 -0.00822776
54 2 9.5994 11.0739 4.73252 -0.0191617 -0.0270484 0.00698995
55 1 5.11619 10.7765 3.57018 0.00077733 -0.00903938 0.000618767
56 2 5.5976 9.96314 3.2874 -0.0264936 0.0114031 0.0175644
57 2 4.29992 10.6546 2.93891 0.00771151 -0.00381282 -0.0173082
58 1 5.96506 10.7658 9.56318 0.00672877 -0.00468876 0.00108168
59 2 5.28563 13.0112 7.62556 -0.00131702 0.0414918 -0.0147175
60 2 7.37682 11.6502 9.66967 -0.0111183 -0.002516 0.00103093
61 1 7.93755 5.30139 6.10652 0.00163169 0.00289026 0.00229262
62 2 7.81431 5.40874 7.10908 -0.00650303 0.0133749 0.0280994
63 2 7.11252 5.8092 5.81685 -0.0128697 0.00696437 -0.0118624
64 1 5.68192 12.1985 7.41095 0.00219107 -0.00597 0.000372065
65 2 4.52568 11.4936 6.52996 -0.0277167 0.00297211 0.00503636
66 2 3.63866 4.60563 6.88742 -0.0104732 0.00459575 0.00452296
67 1 11.5167 10.5966 7.82647 -0.000584549 -0.00587214 0.000306459
68 2 12.1827 10.5427 7.14365 -0.00615429 -0.00251863 0.0145533
69 2 11.7695 9.97105 8.51667 0.0045773 0.00393238 0.0032053
70 1 10.1931 12.8293 4.23245 0.0061089 0.00177541 0.00200718
71 2 10.0928 13.1661 3.30621 0.0589098 0.0265457 -0.00392975
72 2 9.4277 13.2399 4.65129 0.00277886 0.0219258 -0.00363941
73 1 9.32994 8.84911 7.03468 0.000596521 0.00341037 0.00221187
74 2 9.61419 7.96328 7.30704 -0.0107876 0.0197631 0.014138
75 2 10.0603 9.47067 7.32078 -0.0201488 0.0212634 0.00467051
76 1 12.3496 4.98892 10.0472 -0.00831184 -0.00362103 0.00148706
77 2 11.7298 5.58753 9.54047 -0.00220379 -0.0226245 0.0279092
78 2 4.08369 5.8755 10.6289 0.00377036 0.0140315 -0.0186786
79 1 12.4585 8.76609 9.67535 -0.00645128 -0.00452424 -0.00359068
80 2 12.4826 9.04881 10.6207 -0.0467457 -0.0262777 -0.025018