ITEM: TIMESTEP
0
ITEM: NUMBER OF ATOMS
96
ITEM: BOX BOUNDS pp pp pp
2.9236100000000000e+00 1.2773600000000000e+01
4.0306300000000004e+00 1.3880599999999999e+01
2.1372399999999998e+00 1.1987200000000000e+01
ITEM: ATOMS id type x y z vx vy vz
1 1 7.03406 13.0418 3.29989 -0.00568819 0.00411584 -0.000690288
2 2 6.60177 12.2863 3.06358 0.0138438 0.0111247 -0.00175862
3 2 9.70435 12.8664 10.9895 0.0214697 0.0327034 0.00150328
4 1 12.2953 9.78512 2.33271 0.00298566 0.000491235 0.00073
5 2 11.4266 10.1556 2.16492 0.0128884 0.00885221 0.00625915
6 2 12.1815 9.03203 3.00235 -0.0173728 -0.00302799 0.00428345
7 1 12.1056 7.57508 4.00148 0.000216122 -0.00295839 -0.00156713
8 2 11.1835 7.40526 4.19169 0.0118736 -0.0030409 0.0113437
9 2 8.17473 8.3568 8.74673 -0.00349935 -0.0102368 0.0172469
10 1 7.46782 8.2702 9.38617 -0.00241516 -0.0013805 -0.00100196
11 2 7.05664 7.52625 9.0131 0.0234339 -0.0039513 -0.000570312
12 2 6.30809 9.8261 9.39132 -0.0171015 -0.00214872 0.00421309
13 1 6.27405 8.69972 11.8911 0.0143773 0.00122669 0.00500359
14 2 6.4255 9.29338 11.1459 0.0268976 -0.00887628 0.0013382
15 2 5.8655 7.94238 11.4068 -0.00700098 0.0163555 0.024921
16 1 9.5969 7.74996 11.1556 0.000991026 0.00125031 0.00354577
17 2 9.4521 7.3836 2.19755 -0.0379205 -0.00401507 0.00220592
18 2 8.76261 7.76453 10.7385 0.0168163 0.0110923 -0.00179817
19 1 4.81494 6.29221 11.1261 7.59221e-05 0.00513521 0.00318982
20 2 4.75403 5.89781 11.973 -0.00438986 0.00444989 -0.0170734
21 2 11.8374 7.99428 9.68007 0.00440367 -0.00932753 -0.022121
22 1 9.61948 10.558 11.6392 -0.000185676 0.00118323 -0.00132049
23 2 9.34959 10.503 2.79497 0.0264088 0.0199096 -0.0151134
24 2 9.49531 9.60539 11.3612 -0.027112 0.00819413 -0.0344906
25 1 3.26821 8.419 6.32335 -0.00348602 -0.0050311 -0.00610222
26 2 3.49201 9.42049 6.16892 -0.033276 -0.0232523 -0.0155454
27 2 3.43348 6.14409 3.96122 -0.0157839 0.00394915 0.0205932
28 1 9.34727 7.1849 4.13624 -0.00121601 -0.00626466 0.00747702
29 2 9.26185 6.8735 5.0534 -0.0149505 0.00532119 -0.0242817
30 2 8.89669 8.07382 4.19505 -0.00138398 -0.0232614 -0.00333424
31 1 3.81944 10.9988 5.91618 0.00769495 0.000335869 0.00105132
32 2 3.0542 12.6381 5.55162 0.0310276 -0.0015634 0.012789
33 2 4.31504 10.8635 5.03576 0.00370757 0.0101985 -0.0052999
34 1 7.60245 5.09228 8.87073 -0.00150004 -0.0042911 0.00332512
35 2 7.89758 4.17836 8.90964 0.00616611 0.00235915 0.0119824
36 2 7.31415 5.27364 9.8042 -0.0195937 -0.00747355 0.0164033
37 1 8.22413 12.1306 9.94955 -0.00605075 -0.00150808 -0.00456197
38 2 9.47681 12.9807 8.78955 -0.0230862 0.0290483 0.0078349
39 2 8.67046 11.5028 10.6097 -0.0121779 0.0102637 -0.0045628
40 1 12.5021 13.5127 5.48689 -0.00313467 0.00948983 -0.00464839
41 2 3.98804 4.69629 4.37111 -0.00816067 -0.00340447 -0.0109703
42 2 11.5792 13.3554 5.16667 0.00722209 0.0237392 0.000395915
43 1 4.20749 5.57441 3.94309 0.00528325 0.00688528 -0.00174925
44 2 12.5072 7.92347 4.91789 0.0413968 -0.0213644 0.0084313
45 2 7.20259 12.8329 4.21165 -0.00707216 -0.0125 0.0101554
46 1 9.91523 13.0844 7.92399 0.00887155 -0.00110616 -0.00442685
47 2 8.71079 12.7433 7.03761 0.0376248 -0.00517326 -0.0084765
48 2 10.3314 12.2144 7.76884 0.00907801 0.00471985 -0.00423831
49 1 10.3014 6.58495 8.68776 -0.00273834 -0.000507301 0.0090292
50 2 9.45647 6.07014 8.60287 -0.00535313 -0.0135017 2.86068e-05
51 2 10.011 7.15543 9.32585 0.0107512 0.00464648 0.00983328
52 1 9.23936 10.2135 4.44381 -0.00477603 -0.00620346 0.00134709
53 2 8.89296 9.74936 5.25573 -0.00408665 0.00277843 -0.009863
54 2 9.58956 11.0603 4.73622 -0.019823 -0.0262705 0.00800585
55 1 5.11646 10.7719 3.57033 0.000239115 -0.00927163 4.86013e-07
56 2 5.58472 9.96917 3.29675 -0.0242331 0.0115192 0.0195924
57 2 4.30515 10.6534 2.93198 0.0130564 -0.00063301 -0.0104136
58 1 5.96849 10.7633 9.56378 0.00694897 -0.00516932 0.00134067
59 2 5.28473 13.0332 7.61846 -0.00165132 0.0452024 -0.0139958
60 2 7.37138 11.6491 9.67053 -0.0105487 -0.0018027 0.00238355
61 1 7.93828 5.30299 6.10773 0.00124774 0.00352487 0.00256246
62 2 7.81185 5.41455 7.12255 -0.00336509 0.0097356 0.024926
63 2 7.10677 5.81192 5.81039 -0.00969105 0.00366882 -0.0136305
64 1 5.68314 12.1955 7.41101 0.00264963 -0.00615085 -0.000127865
65 2 4.51192 11.4948 6.53265 -0.0271627 0.00166324 0.00556388
66 2 3.63281 4.6075 6.88863 -0.0126239 0.00289304 0.000500868
67 1 11.5163 10.5937 7.8266 -0.00101674 -0.00567681 0.000251488
68 2 12.1801 10.5413 7.15066 -0.00378062 -0.00290976 0.0130322
69 2 11.7725 9.97236 8.51899 0.00719969 0.00126965 0.0061745
70 1 10.1961 12.8302 4.23341 0.0059725 0.00194233 0.00180175
71 2 10.1228 13.179 3.3046 0.0608824 0.0249467 -0.00208592
72 2 9.42915 13.2506 4.64983 0.00327221 0.0210306 -0.0024801
73 1 9.33027 8.85085 7.03579 0.000692886 0.00357228 0.00223517
74 2 9.60915 7.97362 7.31423 -0.00908909 0.0210481 0.0148445
75 2 10.0496 9.48038 7.32279 -0.0225572 0.0175861 0.00345133
76 1 12.3454 4.98716 10.0479 -0.00854772 -0.0034404 0.00131793
77 2 11.7294 5.57604 9.55457 -7.45375e-06 -0.0223958 0.0276451
78 2 4.08549 5.88261 10.6193 0.00359289 0.0144592 -0.0191846
79 1 12.4552 8.76375 9.67355 -0.00666439 -0.00483354 -0.00364405
80 2 12.4595 9.03616 10.6085 -0.0454543 -0.0238886 -0.0227136
81 2 5.8717 11.2272 8.6693 0.0240454 0.0113698 -0.0057236
82 1 7.39758 5.5353 11.4277 -0.00219361 0.00178871 -0.00447042
83 2 6.99903 4.77254 11.8754 0.00642567 -0.00664927 -0.0113665
84 2 6.86031 6.30115 11.5986 0.0223527 -0.0272807 -0.0160078
85 1 10.1816 13.7143 11.2727 0.00549088 0.00536676 -0.00162986
86 2 9.39903 4.45173 11.3277 0.0120941 -0.00829216 0.0236629
87 2 11.7011 4.43985 10.5391 0.00369972 0.012902 -0.00976241
88 1 7.99259 12.5835 6.16332 -0.00274818 -0.000977493 -0.00260685
89 2 6.86369 12.4015 6.84918 -0.0560548 -0.0356211 0.0188939
90 2 7.86778 13.6324 5.81888 -0.0193338 0.0284158 -0.00809579
91 1 5.42703 6.78535 6.06423 -0.0110734 0.00404415 -0.00921938
92 2 4.12766 7.9559 6.32695 -0.0138259 0.00143454 -0.00122114
93 2 5.14423 6.30332 6.87565 0.0240778 -0.00396891 0.012363
94 1 4.13371 4.61039 7.69747 0.0024723 0.0052747 0.00320556
95 2 3.45481 4.77434 8.37705 -0.0126546 0.0186953 0.000132665
96 2 4.90842 6.32544 5.36402 0.0214261 0.00341544 -0.0311597
ITEM: TIMESTEP
1
ITEM: NUMBER OF ATOMS
96
ITEM: BOX BOUNDS pp pp pp
2.9236100000000000e+00 1.2773600000000000e+01
4.0306300000000004e+00 1.3880599999999999e+01
2.1372399999999998e+00 1.1987200000000000e+01
ITEM: ATOMS id type x y z vx vy vz
1 1 7.03128 13.044 3.29957 -0.00540618 0.00466163 -0.000542195
2 2 6.60682 12.2894 3.06108 0.00625739 0.000988925 -0.00838414
3 2 9.71658 12.8841 10.9908 0.0267095 0.0369844 0.00311635
4 1 12.2969 9.78533 2.33313 0.00322839 0.000340514 0.000959275
5 2 11.4322 10.1603 2.16808 0.00960657 0.0098585 0.00630551
6 2 12.1727 9.03081 3.00396 -0.0175223 -0.00168917 0.00199761
7 1 12.1058 7.57364 4.00074 0.000572608 -0.00279096 -0.00139724
8 2 11.1881 7.40347 4.19711 0.00651316 -0.00405359 0.0105497
9 2 8.17356 8.35242 8.75508 -0.000358882 -0.00691035 0.0157044
10 1 7.46663 8.26957 9.38567 -0.00236272 -0.00110877 -0.00095772
11 2 7.06723 7.52278 9.01271 0.0183873 -0.0105368 -0.00102661
12 2 6.29931 9.8263 9.39333 -0.0178421 0.00259344 0.00369615
13 1 6.28121 8.70029 11.8935 0.0142933 0.00108397 0.00478108
14 2 6.4391 9.289 11.1469 0.027516 -0.00862829 0.00270652
15 2 5.86213 7.951 11.4202 -0.00665939 0.0177176 0.0282048
16 1 9.59751 7.75063 11.1574 0.00143597 0.00141636 0.00382967
17 2 9.43306 7.38154 2.19861 -0.0379827 -0.00412279 0.00185477
18 2 8.76915 7.76997 10.737 0.00909506 0.0107344 -0.00436925
19 1 4.81498 6.29481 11.1276 9.19932e-05 0.00528317 0.00274016
20 2 4.75171 5.89958 11.966 -0.00500622 0.00233772 -0.0102601
21 2 11.84 7.99006 9.66846 0.00583721 -0.00782114 -0.0244428
22 1 9.61936 10.5585 11.6386 -0.000266815 0.000829434 -0.00107432
23 2 9.36315 10.5137 2.786 0.0276097 0.022349 -0.0203103
24 2 9.48203 9.60992 11.3436 -0.0259843 0.0100991 -0.035309
25 1 3.26644 8.41653 6.32029 -0.00366026 -0.00489446 -0.00613095
26 2 3.47522 9.40804 6.16137 -0.0336098 -0.0258256 -0.0147989
27 2 3.42466 6.14612 3.9716 -0.018902 0.00393724 0.0207912
28 1 9.34663 7.18184 4.14003 -0.00132651 -0.00597063 0.00760953
29 2 9.25411 6.87612 5.04056 -0.0160759 0.00467451 -0.0257447
30 2 8.89693 8.0609 4.19331 0.00199168 -0.0276811 -0.00359288
31 1 3.82331 10.999 5.9167 0.0077648 0.000537442 0.000995651
32 2 3.06993 12.6368 5.55818 0.0310745 -0.00294723 0.0132442
33 2 4.31695 10.8686 5.03302 0.00398584 0.0102483 -0.00540089
34 1 7.60172 5.09013 8.87232 -0.00144668 -0.00428201 0.00306491
35 2 7.90088 4.17909 8.91547 0.00702358 0.000513239 0.0113327
36 2 7.30391 5.27035 9.81276 -0.021233 -0.00576992 0.0172173
37 1 8.22111 12.1298 9.94726 -0.0060306 -0.00158556 -0.00460004
38 2 9.46503 12.995 8.7941 -0.0235082 0.027864 0.00956159
39 2 8.66401 11.5081 10.607 -0.0132809 0.0108042 -0.00579476
40 1 12.5006 13.5175 5.48455 -0.00299113 0.00965686 -0.00469738
41 2 3.98321 4.69576 4.36528 -0.0109251 0.00142367 -0.0124162
42 2 11.5827 13.3674 5.16672 0.00645299 0.0236764 -0.000329527
43 1 4.21021 5.57776 3.94224 0.00552603 0.00652055 -0.00163543
44 2 12.5278 7.91271 4.9216 0.0406084 -0.0217688 0.00600324
45 2 7.19964 12.8271 4.21772 -0.00479931 -0.0104988 0.0135182
46 1 9.91965 13.0838 7.92174 0.0087656 -0.00111963 -0.00452368
47 2 8.72864 12.7407 7.03184 0.0328553 -0.00504024 -0.0153675
48 2 10.3366 12.2165 7.76691 0.011778 0.00356532 -0.00312846
49 1 10.3 6.58457 8.69214 -0.00296913 -0.00102551 0.00850836
50 2 9.45473 6.0627 8.60216 -0.00121614 -0.0156312 -0.00247289
51 2 10.0165 7.16033 9.3332 0.0111016 0.0142949 0.0191057
52 1 9.23692 10.2103 4.44453 -0.00497502 -0.00658232 0.00148437
53 2 8.89167 9.75153 5.25046 -0.00133809 0.00549898 -0.0108167
54 2 9.57957 11.0476 4.74052 -0.0197776 -0.0238717 0.0093617
55 1 5.11643 10.7672 3.57018 -0.000362907 -0.00934424 -0.000568339
56 2 5.57337 9.97467 3.30699 -0.0203913 0.00927145 0.0210686
57 2 4.31297 10.6539 2.9285 0.0178527 0.00256786 -0.00373138
58 1 5.97201 10.7606 9.56451 0.00712516 -0.00559387 0.00158132
59 2 5.28398 13.0564 7.61157 -0.00078474 0.046261 -0.0138439
60 2 7.36627 11.6484 9.67206 -0.00985824 -0.00105502 0.00369332
61 1 7.9388 5.30491 6.10909 0.000815723 0.00417246 0.00289504
62 2 7.81094 5.41848 7.134 -0.000353485 0.00592772 0.0201718
63 2 7.10283 5.81286 5.80322 -0.00575595 -8.85264e-05 -0.0146709
64 1 5.68457 12.1924 7.41083 0.0030442 -0.00612245 -0.000582542
65 2 4.49851 11.4953 6.53553 -0.0263455 0.000279006 0.00577959
66 2 3.62604 4.60852 6.88793 -0.0140932 0.00114403 -0.00294802
67 1 11.5157 10.5909 7.82672 -0.00148333 -0.00547542 0.000239544
68 2 12.1789 10.5398 7.15668 -0.000739527 -0.00326419 0.0107011
69 2 11.7767 9.97232 8.52284 0.00966806 -0.00133356 0.00917005
70 1 10.1991 12.8312 4.23426 0.00583099 0.00214884 0.00158283
71 2 10.1537 13.191 3.30412 0.0624356 0.0231452 0.000567794
72 2 9.43097 13.2608 4.64881 0.00422981 0.0197889 -0.00187856
73 1 9.33063 8.85268 7.03691 0.000720894 0.00378672 0.00221644
74 2 9.6051 7.98433 7.32188 -0.00687555 0.0212425 0.0159484
75 2 10.0378 9.48826 7.32424 -0.0243463 0.0140897 0.00247311
76 1 12.3411 4.98548 10.0485 -0.00862 -0.00327122 0.00115859
77 2 11.7298 5.56514 9.56812 0.00101293 -0.0202306 0.0257223
78 2 4.08728 5.88996 10.6096 0.00375088 0.014982 -0.0192251
79 1 12.4518 8.76125 9.6717 -0.00686975 -0.00517159 -0.00379427
80 2 12.4371 9.02492 10.5979 -0.0438908 -0.0207492 -0.0187099
81 2 5.88333 11.2328 8.66602 0.0225084 0.0106685 -0.00690827
82 1 7.39658 5.53617 11.4255 -0.0017267 0.00161708 -0.00433071
83 2 7.00202 4.76942 11.8701 0.00540119 -0.00597019 -0.00985301
84 2 6.87053 6.28755 11.5908 0.0175112 -0.0257626 -0.0148526
85 1 10.1842 13.7169 11.2719 0.00492474 0.00508499 -0.00158816
86 2 9.4058 4.4477 11.3395 0.0145101 -0.00750785 0.0237061
87 2 11.7032 4.44564 10.5348 0.00444856 0.00946807 -0.00696994
88 1 7.99125 12.5831 6.1621 -0.00258366 -0.000679596 -0.00225323
89 2 6.83366 12.3837 6.85921 -0.0635749 -0.0351832 0.0211288
90 2 7.85793 13.6454 5.81561 -0.0197722 0.0224925 -0.00441683
91 1 5.42148 6.78736 6.0597 -0.0110855 0.00399096 -0.00889853
92 2 4.12149 7.95613 6.32626 -0.0102536 -0.000715765 -0.00151285
93 2 5.15659 6.30143 6.88173 0.0251414 -0.00359129 0.0112046
94 1 4.13497 4.61307 7.69911 0.00253248 0.0054483 0.00333627
95 2 3.44875 4.78345 8.37756 -0.0111853 0.0176226 0.00169871
96 2 4.91923 6.32713 5.34754 0.0215927 0.003081 -0.0344273
ITEM: TIMESTEP
2
ITEM: NUMBER OF ATOMS
96
ITEM: BOX BOUNDS pp pp pp
2.9236100000000000e+00 1.2773600000000000e+01
4.0306300000000004e+00 1.3880599999999999e+01
2.1372399999999998e+00 1.1987200000000000e+01
ITEM: ATOMS id type x y z vx vy vz
1 1 7.02865 13.0465 3.29935 -0.00511682 0.0051713 -0.000294957
2 2 6.60803 12.2873 3.0552 -0.000994991 -0.00882633 -0.0147106
3 2 9.73106 12.9034 10.9926 0.0303617 0.0385214 0.00384974
4 1 12.2985 9.78546 2.33367 0.00345302 0.000164188 0.00122303
5 2 11.4362 10.1655 2.17123 0.00627828 0.0110143 0.00619351
6 2 12.164 9.03034 3.00435 -0.0173557 -8.89601e-05 -0.000514988
7 1 12.1062 7.57229 4.00008 0.000969145 -0.00262593 -0.00121891
8 2 11.19 7.40121 4.20224 0.00136355 -0.00493081 0.0101132
9 2 8.17437 8.34989 8.76243 0.00404415 -0.00301688 0.0134658
10 1 7.46546 8.26909 9.38521 -0.00234823 -0.000833249 -0.000872515
11 2 7.07503 7.51571 9.01207 0.0126586 -0.01779 -0.0014125
12 2 6.29025 9.82869 9.39502 -0.0181455 0.00646648 0.00290124
13 1 6.28834 8.7008 11.8959 0.0142427 0.000983198 0.00460921
14 2 6.45302 9.28475 11.1486 0.0281278 -0.00833445 0.00382694
15 2 5.85884 7.9601 11.435 -0.00673217 0.0181865 0.0307862
16 1 9.59834 7.75138 11.1594 0.00186114 0.00155711 0.00414913
17 2 9.41412 7.37948 2.1994 -0.0375618 -0.00401073 0.00107672
18 2 8.77171 7.77526 10.7341 0.00123658 0.0104948 -0.00733995
19 1 4.81503 6.29749 11.1288 9.6764e-05 0.00545349 0.00221479
20 2 4.74902 5.90015 11.9627 -0.00587488 -0.00024272 -0.00281274
21 2 11.8432 7.98646 9.65563 0.00692707 -0.006859 -0.0270039
22 1 9.61921 10.5588 11.6381 -0.000316 0.000512695 -0.000970817
23 2 9.3772 10.5253 2.77466 0.0282992 0.0239564 -0.0243629
24 2 9.46933 9.61549 11.3259 -0.0248354 0.0122559 -0.0350234
25 1 3.26455 8.41411 6.31722 -0.00392721 -0.00482326 -0.00612765
26 2 3.4584 9.39466 6.15412 -0.0334172 -0.0269439 -0.0143331
27 2 3.41458 6.14803 3.98201 -0.0207474 0.00344736 0.0206801
28 1 9.34594 7.17893 4.14385 -0.00137834 -0.00571825 0.00756658
29 2 9.24577 6.87817 5.02766 -0.0173967 0.00299627 -0.0244056
30 2 8.89868 8.04614 4.19146 0.00456168 -0.0304306 -0.00380558
31 1 3.8272 10.9993 5.91718 0.00776259 0.000725281 0.000909398
32 2 3.08527 12.6352 5.56486 0.0294874 -0.00267268 0.0132894
33 2 4.31903 10.8737 5.03036 0.0043469 0.0104087 -0.00497312
34 1 7.601 5.088 8.87379 -0.00140793 -0.00425406 0.00285691
35 2 7.9046 4.17887 8.92097 0.00784749 -0.00134683 0.0106603
36 2 7.29292 5.26787 9.82142 -0.0225468 -0.00429937 0.0167765
37 1 8.2181 12.129 9.94495 -0.00601276 -0.00162314 -0.00466837
38 2 9.4533 13.0086 8.79911 -0.0228952 0.0261017 0.00961099
39 2 8.65718 11.5136 10.6039 -0.0137784 0.0112616 -0.00650852
40 1 12.4991 13.5224 5.48219 -0.00270627 0.00975541 -0.00470215
41 2 3.97711 4.69771 4.35869 -0.0132228 0.0063655 -0.0139245
42 2 11.5857 13.3791 5.16634 0.00512879 0.0227054 -0.00130204
43 1 4.21302 5.58093 3.94145 0.00565798 0.00618528 -0.00149249
44 2 12.5478 7.9017 4.92389 0.0388725 -0.0223787 0.00279625
45 2 7.19779 12.8224 4.22517 -0.00291484 -0.0083102 0.015181
46 1 9.924 13.0833 7.91947 0.00860585 -0.00109873 -0.00454538
47 2 8.74365 12.7383 7.02224 0.0263222 -0.0048761 -0.0236774
48 2 10.3432 12.218 7.76571 0.0142994 0.00220262 -0.00137715
49 1 10.2984 6.58392 8.69627 -0.00324114 -0.00150436 0.00803016
50 2 9.45525 6.05451 8.6004 0.00349794 -0.0165768 -0.00420186
51 2 10.0221 7.16972 9.34496 0.0112924 0.0222378 0.0270629
52 1 9.23438 10.2069 4.44529 -0.00518149 -0.00699807 0.00155525
53 2 8.89162 9.75486 5.24491 0.000829709 0.00734602 -0.0109344
54 2 9.56978 11.0364 4.74558 -0.019092 -0.0200147 0.0109568
55 1 5.1161 10.7626 3.56976 -0.000991024 -0.00925065 -0.00106516
56 2 5.56433 9.97844 3.31782 -0.0151437 0.00471748 0.0219834
57 2 4.323 10.656 2.92825 0.0217254 0.00564415 0.00233728
58 1 5.97562 10.7577 9.56536 0.00724965 -0.00594112 0.00180087
59 2 5.28395 13.0795 7.60462 0.00111066 0.044813 -0.0141574
60 2 7.36152 11.648 9.67422 -0.0091188 -0.000283923 0.00490864
61 1 7.9391 5.30716 6.11063 0.000359602 0.00480926 0.00326485
62 2 7.8115 5.42048 7.14272 0.00242353 0.00208417 0.0142398
63 2 7.10101 5.81183 5.79572 -0.00133861 -0.00408717 -0.0149978
64 1 5.68618 12.1894 7.41043 0.00337189 -0.00589125 -0.000998065
65 2 4.48557 11.4951 6.53843 -0.0253112 -0.00115045 0.00569162
66 2 3.61872 4.60864 6.88568 -0.0147569 -0.000651065 -0.0055315
67 1 11.5148 10.5882 7.82684 -0.00195671 -0.00528681 0.000272701
68 2 12.1794 10.538 7.16136 0.00267857 -0.00355357 0.00785599
69 2 11.7822 9.97103 8.52816 0.0118717 -0.00362603 0.0119006
70 1 10.2019 12.8323 4.23499 0.00569414 0.00238746 0.00135767
71 2 10.1852 13.2021 3.30517 0.0634751 0.0211959 0.00392267
72 2 9.43338 13.2704 4.64795 0.00558147 0.0182646 -0.00182508
73 1 9.33099 8.85464 7.03801 0.000672498 0.0040356 0.00215491
74 2 9.60227 7.99486 7.33018 -0.00422119 0.0203426 0.0174386
75 2 10.0253 9.49447 7.32526 -0.0253443 0.0110432 0.00180843
76 1 12.3368 4.98389 10.0491 -0.00852738 -0.00312106 0.00101364
77 2 11.7304 5.55581 9.58029 0.000761977 -0.0161859 0.0222206
78 2 4.08924 5.89759 10.6001 0.00424855 0.0155859 -0.0187502
79 1 12.4483 8.75858 9.66976 -0.00705618 -0.00551771 -0.0040236
80 2 12.4156 9.01541 10.5898 -0.042202 -0.0170375 -0.0133338
81 2 5.89421 11.2379 8.66239 0.0210421 0.00922216 -0.00707088
82 1 7.39585 5.53692 11.4234 -0.001127 0.00130262 -0.00422655
83 2 7.00443 4.76657 11.8655 0.00417437 -0.00553224 -0.00815176
84 2 6.87782 6.27539 11.5837 0.0107978 -0.0216587 -0.0130889
85 1 10.1865 13.7194 11.2711 0.00449018 0.00490777 -0.00147696
86 2 9.41354 4.44422 11.3514 0.0159238 -0.0060388 0.0237691
87 2 11.7055 4.44932 10.5321 0.0044509 0.00457108 -0.00296103
88 1 7.99001 12.5828 6.16107 -0.00239039 -0.000224295 -0.00188672
89 2 6.80012 12.3663 6.87031 -0.0701106 -0.0343477 0.0231785
90 2 7.84801 13.6549 5.81446 -0.0195676 0.0144206 0.000391162
91 1 5.41594 6.78934 6.05533 -0.0110469 0.0039563 -0.00854206
92 2 4.11741 7.95518 6.32544 -0.00562596 -0.00318574 -0.00176386
93 2 5.16937 6.29973 6.88685 0.0257715 -0.00322414 0.00861204
94 1 4.13624 4.61584 7.70081 0.00250778 0.0056245 0.00343273
95 2 3.44362 4.79196 8.37875 -0.00892057 0.016326 0.00281478
96 2 4.93001 6.32852 5.32959 0.0214307 0.00228466 -0.0369251
ITEM: TIMESTEP
3
ITEM: NUMBER OF ATOMS
96
ITEM: BOX BOUNDS pp pp pp
2.9236100000000000e+00 1.2773600000000000e+01
4.0306300000000004e+00 1.3880599999999999e+01
2.1372399999999998e+00 1.1987200000000000e+01
ITEM: ATOMS id type x y z vx vy vz
1 1 7.02617 13.0492 3.29927 -0.00486178 0.00556467 3.24809e-05
2 2 6.60583 12.2806 3.04637 -0.00703284 -0.0169007 -0.0198468
3 2 9.74694 12.9227 10.9946 0.0322502 0.0370161 0.00356723
4 1 12.3003 9.7855 2.33435 0.00364401 -2.24932e-05 0.00150387
5 2 11.4385 10.1713 2.17428 0.00316724 0.0122086 0.00596793
6 2 12.1554 9.03072 3.00344 -0.0168861 0.00162833 -0.00312723
7 1 12.1068 7.57102 3.99952 0.00137619 -0.0024734 -0.00103368
8 2 11.1895 7.39854 4.20723 -0.00316875 -0.00560337 0.00995206
9 2 8.1776 8.3494 8.76855 0.00869672 0.000938956 0.0110107
10 1 7.46428 8.26874 9.3848 -0.0023675 -0.000599184 -0.000791056
11 2 7.07989 7.50499 9.0113 0.00727164 -0.024497 -0.00149459
12 2 6.28116 9.83277 9.39623 -0.0179367 0.00915588 0.0018193
13 1 6.29546 8.70128 11.8981 0.0142315 0.000930796 0.00450076
14 2 6.46723 9.28066 11.1508 0.0287177 -0.00799945 0.00461306
15 2 5.8554 7.96919 11.4509 -0.00731724 0.0176936 0.0325699
16 1 9.59937 7.75219 11.1616 0.00222038 0.00167126 0.00447727
17 2 9.3955 7.37753 2.19969 -0.0366507 -0.00367072 -0.000164148
18 2 8.77039 7.78047 10.7297 -0.00606885 0.0103698 -0.0103436
19 1 4.81508 6.30026 11.1298 9.06038e-05 0.00562726 0.00165933
20 2 4.74584 5.89934 11.9632 -0.00697682 -0.00297139 0.00455011
21 2 11.8469 7.9832 9.64146 0.0076424 -0.006465 -0.0297038
22 1 9.61905 10.559 11.6376 -0.000325904 0.000242882 -0.00102707
23 2 9.39145 10.5376 2.76163 0.0283953 0.0247403 -0.0268732
24 2 9.4572 9.62218 11.3086 -0.0236837 0.0144887 -0.033696
25 1 3.26251 8.4117 6.31416 -0.00426067 -0.00483367 -0.00608984
26 2 3.4418 9.3811 6.14703 -0.0327234 -0.0265781 -0.014174
27 2 3.40391 6.14957 3.99228 -0.0212558 0.00255932 0.0202025
28 1 9.34525 7.17613 4.1476 -0.00135273 -0.0055296 0.00734457
29 2 9.23672 6.87912 5.01615 -0.0189563 0.000213014 -0.0201799
30 2 8.90149 8.03047 4.18951 0.00610583 -0.0310793 -0.00400961
31 1 3.83108 10.9997 5.9176 0.00769037 0.000897579 0.000792635
32 2 3.09942 12.6341 5.57147 0.0263497 -0.000838127 0.012922
33 2 4.3213 10.879 5.02805 0.00477375 0.0106764 -0.00402792
34 1 7.60031 5.08588 8.87518 -0.0013818 -0.00421647 0.00270367
35 2 7.90873 4.17775 8.92614 0.00856891 -0.00303022 0.0100103
36 2 7.28136 5.26605 9.82954 -0.023483 -0.00311173 0.0150793
37 1 8.2151 12.1282 9.94259 -0.00599694 -0.00161772 -0.00476724
38 2 9.44214 13.0211 8.80371 -0.0212229 0.0238127 0.0079534
39 2 8.65023 11.5193 10.6005 -0.0137277 0.0114959 -0.00669655
40 1 12.4978 13.5273 5.47985 -0.00229318 0.00978699 -0.00466512
41 2 3.96999 4.70212 4.35136 -0.0150411 0.0110609 -0.015358
42 2 11.5878 13.3901 5.16542 0.00338042 0.0209234 -0.00245446
43 1 4.21586 5.58394 3.94075 0.00567418 0.0058976 -0.00132941
44 2 12.5667 7.89034 4.9244 0.0362291 -0.0231472 -0.0010845
45 2 7.19673 12.8188 4.2329 -0.00165983 -0.00609491 0.0145691
46 1 9.92825 13.0827 7.9172 0.00839411 -0.00105851 -0.00449192
47 2 8.75496 12.7359 7.00816 0.0184505 -0.00471414 -0.0329052
48 2 10.3509 12.2187 7.76554 0.0165276 0.00084915 0.000946785
49 1 10.2967 6.58306 8.70017 -0.00354379 -0.00189532 0.00763657
50 2 9.45823 6.04612 8.59796 0.00843426 -0.0165163 -0.00515834
51 2 10.0278 7.18257 9.36027 0.0115236 0.0278751 0.0331173
52 1 9.23174 10.2033 4.44608 -0.00538253 -0.00742404 0.00155864
53 2 8.8925 9.75888 5.23953 0.00233712 0.00821268 -0.0101111
54 2 9.56048 11.0276 4.75148 -0.017894 -0.0150072 0.0126461
55 1 5.11544 10.758 3.56912 -0.00160095 -0.00900293 -0.00147305
56 2 5.55823 9.97938 3.32897 -0.00880809 -0.00182599 0.0223921
57 2 4.3347 10.6595 2.93083 0.0243358 0.00845963 0.00741034
58 1 5.97926 10.7547 9.56631 0.0073171 -0.00619433 0.00199943
59 2 5.28509 13.1012 7.59741 0.00375225 0.0412045 -0.0147842
60 2 7.35715 11.6481 9.67697 -0.00839401 0.000495457 0.00599158
61 1 7.93916 5.30972 6.11235 -9.64264e-05 0.00541386 0.00364691
62 2 7.81337 5.42056 7.14824 0.00487655 -0.00165418 0.00757689
63 2 7.10149 5.80877 5.78823 0.00327104 -0.00809992 -0.0146716
64 1 5.68794 12.1865 7.40983 0.00362743 -0.00547806 -0.00137849
65 2 4.4732 11.4941 6.54122 -0.0240782 -0.0025768 0.00535621
66 2 3.61128 4.60786 6.88239 -0.0145554 -0.00248051 -0.00706249
67 1 11.5137 10.5856 7.82699 -0.00240747 -0.00512787 0.000348666
68 2 12.1816 10.5362 7.16453 0.00613871 -0.00375316 0.00483751
69 2 11.7886 9.96869 8.53474 0.0137123 -0.00539471 0.0141025
70 1 10.2047 12.8336 4.23562 0.0055721 0.002647 0.00113482
71 2 10.2172 13.2122 3.30805 0.0639384 0.0191759 0.00780904
72 2 9.43655 13.2791 4.64699 0.00722721 0.0165549 -0.00228402
73 1 9.33131 8.85672 7.03906 0.000544957 0.00429632 0.00205371
74 2 9.60088 8.00468 7.33932 -0.00122911 0.0184623 0.0192645
75 2 10.0124 9.4993 7.32604 -0.0254343 0.00867309 0.0015088
76 1 12.3326 4.98236 10.0495 -0.00828683 -0.00299444 0.000885828
77 2 11.7306 5.54895 9.59034 -0.000711244 -0.0105001 0.0173686
78 2 4.09153 5.90554 10.5909 0.00505404 0.0162383 -0.0177381
79 1 12.4448 8.75573 9.66768 -0.00721585 -0.00585107 -0.00430558
80 2 12.3949 9.00788 10.5846 -0.0405128 -0.0129823 -0.00706139
81 2 5.90437 11.242 8.65895 0.0196497 0.00703363 -0.00615774
82 1 7.39546 5.53747 11.4213 -0.000422908 0.000870962 -0.00414647
83 2 7.00619 4.76388 11.8619 0.00283069 -0.00528988 -0.00632924
84 2 6.88132 6.26589 11.5777 0.00257019 -0.0154418 -0.0108697
85 1 10.1887 13.7218 11.2704 0.00421656 0.00486161 -0.00129136
86 2 9.42172 4.44166 11.3633 0.0162152 -0.00384693 0.0238844
87 2 11.7077 4.45021 10.5318 0.00384658 -0.00147609 0.00200057
88 1 7.98886 12.5828 6.16022 -0.00216912 0.00036594 -0.00152583
89 2 6.76355 12.3494 6.88239 -0.0756194 -0.0331998 0.0250435
90 2 7.83836 13.6598 5.816 -0.0187466 0.00462219 0.00602449
91 1 5.41044 6.79131 6.05115 -0.0109703 0.00394114 -0.00816611
92 2 4.11586 7.95294 6.3245 -0.000297374 -0.00577666 -0.00198334
93 2 5.18236 6.2982 6.89034 0.0259615 -0.00292236 0.00474602
94 1 4.13748 4.61869 7.70254 0.00240002 0.00579963 0.00348162
95 2 3.43983 4.79977 8.38038 -0.00595613 0.0148204 0.00350394
96 2 4.94066 6.32941 5.31061 0.0210849 0.00114262 -0.0385162
ITEM: TIMESTEP
4
ITEM: NUMBER OF ATOMS
96
ITEM: BOX BOUNDS pp pp pp
2.9236100000000000e+00 1.2773600000000000e+01
4.0306300000000004e+00 1.3880599999999999e+01
2.1372399999999998e+00 1.1987200000000000e+01
ITEM: ATOMS id type x y z vx vy vz
1 1 7.02379 13.052 3.29938 -0.00467251 0.0057882 0.000407783
2 2 6.60099 12.2704 3.03535 -0.0114303 -0.0223763 -0.0234831
3 2 9.76331 12.9404 10.9962 0.0322928 0.0322399 0.00215889
4 1 12.3022 9.78544 2.33517 0.00378774 -0.000203831 0.00178295
5 2 11.4394 10.1777 2.17719 0.000515789 0.0133295 0.0056745
6 2 12.1471 9.03197 3.00122 -0.0161419 0.00331044 -0.0057024
7 1 12.1075 7.56982 3.99905 0.00176613 -0.00234245 -0.000844138
8 2 11.1868 7.3956 4.21219 -0.00675977 -0.00602084 0.00996884
9 2 8.18307 8.35083 8.77345 0.0125524 0.00444543 0.0088277
10 1 7.46309 8.26849 9.38442 -0.00240942 -0.000447286 -0.000756483
11 2 7.0823 7.49122 9.01058 0.00316943 -0.0295072 -0.00107536
12 2 6.27231 9.83785 9.39684 -0.0171713 0.0104124 0.000455448
13 1 6.30257 8.70173 11.9004 0.0142613 0.000930572 0.0044637
14 2 6.48173 9.27675 11.1532 0.0292631 -0.00764731 0.00500668
15 2 5.85152 7.97779 11.4676 -0.00846135 0.0162704 0.0335279
16 1 9.60056 7.75305 11.1639 0.00247259 0.0017602 0.00478663
17 2 9.37747 7.37581 2.19924 -0.0352546 -0.00311805 -0.0018435
18 2 8.76564 7.78563 10.7238 -0.0122015 0.0103443 -0.0130317
19 1 4.81512 6.30312 11.1305 7.62058e-05 0.00578616 0.00112124
20 2 4.74205 5.89718 11.9673 -0.00827448 -0.00551523 0.0111229
21 2 11.8509 7.97999 9.62592 0.00798781 -0.00660234 -0.0324253
22 1 9.61889 10.5591 11.6371 -0.000291282 2.83163e-05 -0.00125198
23 2 9.40559 10.5501 2.74779 0.027852 0.0247492 -0.0275267
24 2 9.44564 9.62998 11.2922 -0.0225526 0.0166123 -0.0314362
25 1 3.26029 8.40927 6.31113 -0.00462964 -0.00493679 -0.00601844
26 2 3.42568 9.36809 6.13995 -0.0315593 -0.024817 -0.0143188
27 2 3.39332 6.15059 4.00221 -0.0204598 0.00141238 0.0193149
28 1 9.34459 7.1734 4.15119 -0.00123741 -0.0054246 0.00696109
29 2 9.22682 6.87839 5.00748 -0.0207446 -0.00372731 -0.0132489
30 2 8.90479 8.01506 4.18745 0.00645545 -0.0292521 -0.0043174
31 1 3.8349 11.0002 5.91797 0.00754961 0.00105082 0.000646461
32 2 3.11162 12.6343 5.57779 0.0218439 0.00233859 0.0121619
33 2 4.3238 10.8844 5.02633 0.00526536 0.0110368 -0.00263285
34 1 7.59962 5.08378 8.8765 -0.00136639 -0.00417724 0.00261156
35 2 7.91317 4.17584 8.93098 0.00912118 -0.00437061 0.00941777
36 2 7.26943 5.26476 9.8365 -0.0240145 -0.00222994 0.0122201
37 1 8.2121 12.1274 9.94018 -0.00598155 -0.00156786 -0.00489457
38 2 9.43208 13.0324 8.80706 -0.0185197 0.0210657 0.00467139
39 2 8.64345 11.5251 10.5972 -0.0131419 0.0114785 -0.00635132
40 1 12.4968 13.5321 5.47753 -0.00177346 0.00976003 -0.0045912
41 2 3.96207 4.70877 4.34334 -0.0163766 0.0151528 -0.0165877
42 2 11.589 13.4 5.16389 0.00136446 0.0184578 -0.00370842
43 1 4.21869 5.58683 3.94013 0.00557679 0.00567074 -0.00115607
44 2 12.584 7.87855 4.92281 0.0327721 -0.0240084 -0.0054621
45 2 7.19613 12.8163 4.23974 -0.00097952 -0.00386011 0.0118799
46 1 9.93239 13.0822 7.91497 0.00813529 -0.00101357 -0.00436949
47 2 8.7621 12.7335 6.98934 0.00987486 -0.00463589 -0.0423525
48 2 10.3597 12.2188 7.76666 0.0183533 -0.000289472 0.00374685
49 1 10.2949 6.58203 8.7039 -0.00385751 -0.00216384 0.00735483
50 2 9.46369 6.03799 8.59524 0.013235 -0.0156576 -0.00536636
51 2 10.0336 7.1976 9.37807 0.0118857 0.0308448 0.0369247
52 1 9.229 10.1995 4.44685 -0.00556463 -0.00782934 0.00150006
53 2 8.89396 9.76307 5.2348 0.00315205 0.00805426 -0.00830753
54 2 9.55189 11.0214 4.75823 -0.0163621 -0.00928152 0.0142467
55 1 5.1145 10.7536 3.56829 -0.00214382 -0.00863203 -0.0017809
56 2 5.55552 9.97662 3.34021 -0.00184389 -0.00977902 0.0224011
57 2 4.34734 10.6644 2.93566 0.0254082 0.0108879 0.0111484
58 1 5.98293 10.7515 9.56736 0.00732477 -0.00634281 0.00217936
59 2 5.2877 13.1207 7.58983 0.00683183 0.0358908 -0.0155657
60 2 7.35313 11.6485 9.68021 -0.00774118 0.00126755 0.00691441
61 1 7.939 5.31258 6.11427 -0.000528463 0.00596845 0.00401799
62 2 7.81637 5.41882 7.1503 0.0069358 -0.00514671 0.000643791
63 2 7.10429 5.80373 5.78105 0.00777837 -0.011905 -0.0137894
64 1 5.68981 12.1839 7.40905 0.00379862 -0.00491426 -0.00172186
65 2 4.4615 11.4925 6.54379 -0.0226352 -0.00393303 0.00487411
66 2 3.60416 4.60616 6.87862 -0.0134966 -0.00432085 -0.00746154
67 1 11.5124 10.5831 7.82719 -0.00280725 -0.00501207 0.00046128
68 2 12.1855 10.5343 7.1662 0.00929585 -0.00384275 0.00199115
69 2 11.7959 9.96563 8.54226 0.0151104 -0.00648609 0.0155686
70 1 10.2075 12.835 4.23613 0.0054747 0.00291344 0.000923654
71 2 10.2492 13.2213 3.31298 0.0637962 0.0171768 0.0120055
72 2 9.44061 13.2869 4.64567 0.00903881 0.0147801 -0.00319013
73 1 9.33154 8.85893 7.04006 0.000341582 0.00454348 0.00191994
74 2 9.60105 8.01332 7.34944 0.00197199 0.0158281 0.0213339
75 2 9.99982 9.50314 7.32677 -0.0245648 0.00714386 0.00159883
76 1 12.3285 4.98089 10.0499 -0.00793502 -0.00289171 0.000775539
77 2 11.7297 5.54531 9.59766 -0.00319039 -0.00366646 0.0115989
78 2 4.09429 5.91383 10.5823 0.00609534 0.0168894 -0.0162078
79 1 12.4411 8.75273 9.66545 -0.00734506 -0.00615207 -0.00460722
80 2 12.3751 9.00243 10.5827 -0.0389133 -0.0088476 -0.000478995