ITEM: TIMESTEP
0
ITEM: NUMBER OF ATOMS
96
ITEM: BOX BOUNDS pp pp pp
2.9236100000000000e+00 1.2773600000000000e+01
4.0306300000000004e+00 1.3880599999999999e+01
2.1372399999999998e+00 1.1987200000000000e+01
ITEM: ATOMS id type x y z vx vy vz
1 1 7.06353 13.0207 3.29882 0.00370716 -0.0056196 -0.00164665
2 2 6.48905 12.2118 3.05125 -0.000193538 0.0216119 0.0157742
3 2 9.75848 12.8816 11.0471 0.018117 0.00657089 0.0122604
4 1 12.2835 9.7838 2.32843 -0.00199155 0.000728009 -0.00167594
5 2 11.3375 10.0977 2.15786 -0.00396906 -0.0171677 0.00670315
6 2 12.2434 9.03035 2.9594 0.00334268 -0.0106375 -0.0054191
7 1 12.1033 7.59395 4.01369 -0.00241133 0.00345338 0.00260665
8 2 11.0753 7.40642 4.0678 -0.000979053 0.00257604 -0.0338822
9 2 8.14249 8.44277 8.68833 -0.023551 0.0130181 -0.0015678
10 1 7.48356 8.27884 9.3854 0.00287324 0.000934837 -0.00157611
11 2 6.93013 7.53089 9.04387 -0.00384334 0.0175319 0.0139783
12 2 6.37213 9.95402 9.3718 0.0115168 0.0257452 -0.00309961
13 1 6.19209 8.68829 11.8576 -0.0150227 -0.00226266 -0.0062245
14 2 6.29335 9.34852 11.1702 -0.0221879 0.0109203 0.00477494
15 2 5.91392 7.9188 11.3771 0.00521419 -0.00138774 0.00391303
16 1 9.59551 7.74902 11.1355 -0.00118307 0.000791793 -0.00494586
17 2 9.61138 7.39034 2.18419 0.0154984 -0.00152752 -0.00587323
18 2 8.62504 7.69095 10.7845 -0.00210519 -0.0137383 0.0284092
19 1 4.81505 6.2622 11.1109 -7.59991e-05 -0.00656084 -0.000536796
20 2 4.78152 5.91078 2.2123 0.00659958 0.0195099 -0.0107071
21 2 11.8544 8.10012 9.77896 0.00221931 0.0203692 0.021283
22 1 9.61805 10.5399 11.6601 -0.000170302 -0.00521548 0.00542853
23 2 9.25366 10.5267 2.72709 -0.0132859 0.0268584 -0.024215
24 2 9.66994 9.56459 11.4325 0.0328998 -0.0103282 -0.0099614
25 1 3.29464 8.45157 6.35428 0.00707019 0.00603175 0.00513273
26 2 3.61439 9.39868 6.28729 0.00792324 -0.0210733 0.0256612
27 2 3.38521 6.1402 3.87234 -0.0191669 -0.00423581 -0.0102509
28 1 9.3519 7.22452 4.10804 0.00153595 0.00660433 -0.00365773
29 2 9.31126 6.8837 4.99326 0.00139045 0.00544588 -0.0343397
30 2 9.00038 8.07149 4.21047 0.0226619 0.00396519 0.00513991
31 1 3.78879 11.0046 5.91171 -0.00209783 0.00273787 -0.000233608
32 2 3.00936 12.5165 5.52748 0.0154954 -0.0332185 0.00570977
33 2 4.27753 10.8059 5.04299 -0.0147861 -0.00916688 0.00226388
34 1 7.6136 5.11294 8.84287 0.00251861 0.00308403 -0.00625109
35 2 7.87259 4.1689 8.84838 -0.00595041 0.00851924 -0.00462774
36 2 7.37099 5.35387 9.80075 0.00619199 0.0138985 0.00716414
37 1 8.25764 12.1343 9.97487 0.00589106 -6.3109e-05 0.00436141
38 2 9.52987 12.8552 8.8724 -0.00227599 -0.00826897 0.0250338
39 2 8.68261 11.4711 10.5776 -0.00171095 -0.00147054 -0.011417
40 1 12.5116 13.4668 5.50726 0.000143334 -0.00831165 0.0026656
41 2 3.90801 4.7579 4.43246 -0.038693 0.00324984 0.0177263
42 2 11.5862 13.3198 5.17619 0.0134893 0.0167045 0.00594284
43 1 4.19101 5.53095 3.95117 -0.00148398 -0.00731505 0.000675751
44 2 12.3292 8.04659 4.87856 -0.0205244 0.0227424 -0.000395435
45 2 7.26985 12.9069 4.2219 0.0103309 0.00852881 0.00165004
46 1 9.86727 13.0824 7.94361 -0.00843819 -0.00286062 0.00381451
47 2 8.5867 12.7669 7.06357 0.0105036 0.00138022 0.0186512
48 2 10.3507 12.2275 7.75702 0.012062 0.0190891 -0.0136335
49 1 10.3106 6.58467 8.63454 0.000674893 0.00184455 -0.007939
50 2 9.53837 6.03542 8.52176 0.0161275 -0.0209788 -0.0213894
51 2 10.0285 7.26003 9.38325 0.0237419 -0.00153025 -0.00958823
52 1 9.26301 10.244 4.4438 0.00432701 0.00574277 0.000857412
53 2 9.01086 9.84158 5.2628 0.0315946 0.0266665 0.00436197
54 2 9.6358 11.1252 4.69229 -0.00427947 -0.00771433 -0.0117309
55 1 5.11096 10.8101 3.55546 0.00093685 0.00508947 -0.00351115
56 2 5.67075 10.0325 3.26949 -0.00494991 0.0383556 0.00664825
57 2 4.32253 10.715 3.10957 -0.0108449 0.0102009 0.0252628
58 1 5.93772 10.7791 9.56336 -0.00463248 0.00191287 0.000490029
59 2 5.21734 13.0113 7.74416 -0.0223855 0.028565 0.0251525
60 2 7.41779 11.6784 9.68552 -0.000451015 0.00890739 0.00374945
61 1 7.92835 5.29667 6.09264 -0.000731599 -8.54801e-05 -0.00429623
62 2 7.90605 5.28636 7.06089 0.0227523 -0.0285805 0.0217486
63 2 7.14684 5.76727 5.7943 -0.0129464 -0.000160274 -0.0170274
64 1 5.68447 12.2142 7.39387 0.00246406 0.00103628 -0.00607535
65 2 4.6317 11.4533 6.52263 0.00360167 -0.0129369 -0.00299373
66 2 3.62554 4.54112 6.81566 -0.011395 -0.0213577 -0.00505439
67 1 11.5155 10.6265 7.82261 -9.06986e-05 0.00519314 -0.000820235
68 2 12.1943 10.5502 7.11907 -0.00882798 0.00236472 0.0110232
69 2 11.7979 9.9362 8.51766 0.0103401 0.00199164 -0.00734333
70 1 10.1602 12.8215 4.21927 -0.00708217 -0.0014687 -0.00297075
71 2 9.86002 13.013 3.31029 -0.0344056 -0.0323786 -0.0052772
72 2 9.39901 13.1341 4.72763 -0.00658631 -0.0192793 0.0250551
73 1 9.33163 8.83 7.02611 0.000983994 -0.00497466 -0.00127415
74 2 9.66089 7.93842 7.23087 0.00159328 0.00445265 -0.0172254
75 2 10.1044 9.32815 7.26861 0.00615826 -0.0192201 -0.012999
76 1 12.3787 5.01044 10.0359 0.00406545 0.00457662 -0.00281604
77 2 11.8262 5.59943 9.49182 0.0268972 -0.01678 0.00850967
78 2 4.05114 5.81517 10.6917 -0.00680596 -0.00851943 0.00695502
79 1 12.4883 8.78756 9.69964 0.00642332 0.0053617 0.00660585
80 2 12.6936 9.16387 10.6608 0.0280422 0.0108656 -0.0207293
81 2 5.69792 11.1968 8.62453 -0.0346432 7.2781e-05 -0.0123003
82 1 7.409 5.53388 11.4608 0.000914606 0.00187732 0.00775223
83 2 6.97115 4.82683 11.9564 0.00180533 0.00560616 0.0152763
84 2 6.78575 6.27455 11.6469 0.0065935 -0.0392046 -0.0047326
85 1 10.1349 13.677 11.2799 -0.00921148 -0.00627421 0.00146656
86 2 9.43063 4.47367 11.2017 0.0125609 0.000360847 -0.0220134
87 2 11.7647 4.43189 10.5392 0.0236725 0.0187082 -0.0166069
88 1 8.00747 12.5831 6.18651 0.00205637 -0.00195037 0.00543588
89 2 6.8428 12.5426 6.82596 -0.0712326 0.00733195 0.0132646
90 2 7.92712 13.5442 5.82398 0.00187549 0.0155171 -0.0193889
91 1 5.47927 6.75948 6.11822 0.00696715 -0.0056267 0.009763
92 2 4.16321 7.93433 6.32332 -0.0133378 -0.00395587 -0.00201472
93 2 5.08182 6.33043 6.90064 0.00472176 0.00547583 0.0249169
94 1 4.12693 4.58575 7.68188 -0.000176601 -0.00385192 -0.00317766
95 2 3.49905 4.65539 8.43022 0.00157898 -0.0242162 0.0102964
96 2 4.86999 6.3614 5.4195 0.0169892 0.0217067 -0.00562007
ITEM: TIMESTEP
1
ITEM: NUMBER OF ATOMS
96
ITEM: BOX BOUNDS pp pp pp
2.9236100000000000e+00 1.2773600000000000e+01
4.0306300000000004e+00 1.3880599999999999e+01
2.1372399999999998e+00 1.1987200000000000e+01
ITEM: ATOMS id type x y z vx vy vz
1 1 7.0653 13.0178 3.29794 0.00340838 -0.00594852 -0.00185144
2 2 6.49025 12.2245 3.06028 0.00447019 0.0285479 0.0200901
3 2 9.76645 12.8827 11.0526 0.0132572 -0.00289377 0.00949941
4 1 12.2825 9.78421 2.32755 -0.0020521 0.000897416 -0.00182514
5 2 11.3365 10.0888 2.1616 -7.77784e-05 -0.0183168 0.0081768
6 2 12.2448 9.02454 2.95683 0.00220702 -0.0123722 -0.00500405
7 1 12.102 7.59567 4.015 -0.00288861 0.00343125 0.00262962
8 2 11.0765 7.40803 4.05061 0.00557139 0.00388285 -0.0346095
9 2 8.13017 8.44897 8.68756 -0.0252747 0.0118103 -0.00198474
10 1 7.48497 8.27928 9.38458 0.00273824 0.000844751 -0.00164456
11 2 6.92936 7.54055 9.05107 0.000447732 0.0206713 0.0145353
12 2 6.37825 9.96603 9.37014 0.0131026 0.0220317 -0.00364793
13 1 6.1846 8.6872 11.8545 -0.0149343 -0.00208402 -0.00600414
14 2 6.28227 9.35395 11.1724 -0.0221801 0.0106841 0.00376137
15 2 5.91607 7.91754 11.3788 0.00332851 -0.00390229 0.00248025
16 1 9.59484 7.74945 11.133 -0.00146666 0.00093727 -0.00522535
17 2 9.61848 7.38948 2.18096 0.0129936 -0.00188658 -0.00697986
18 2 8.62572 7.68418 10.7997 0.00452999 -0.013284 0.0321202
19 1 4.815 6.25886 11.1107 -0.000139156 -0.00676265 -0.000161076
20 2 4.78484 5.92129 2.20558 0.00661722 0.0221725 -0.0154126
21 2 11.8549 8.10975 9.79 -0.00032619 0.0179658 0.0229517
22 1 9.61801 10.5372 11.6628 2.01599e-05 -0.00550396 0.00526749
23 2 9.24683 10.5406 2.71541 -0.014227 0.0283209 -0.0219882
24 2 9.68614 9.55949 11.427 0.0316395 -0.0097859 -0.0114955
25 1 3.29825 8.45453 6.35683 0.0073347 0.00578091 0.00506979
26 2 3.61782 9.38852 6.30017 0.00607823 -0.0188263 0.0258153
27 2 3.37633 6.13742 3.86751 -0.0157046 -0.00705932 -0.00911
28 1 9.35275 7.22773 4.10616 0.00187717 0.00622961 -0.00391899
29 2 9.31153 6.88594 4.97673 -0.000334666 0.00296348 -0.0305969
30 2 9.01112 8.07537 4.2133 0.0201538 0.0119867 0.00617411
31 1 3.78793 11.0061 5.91163 -0.00134634 0.00311765 -8.05371e-05
32 2 3.01757 12.5006 5.53075 0.0168093 -0.0296446 0.00725126
33 2 4.26967 10.8015 5.04447 -0.016528 -0.00847914 0.00359284
34 1 7.61487 5.11447 8.83974 0.00254716 0.00306773 -0.00626485
35 2 7.86951 4.17372 8.84659 -0.00627842 0.0104422 -0.00249097
36 2 7.37422 5.36035 9.80386 0.0068512 0.0118623 0.00487833
37 1 8.26056 12.1343 9.97701 0.00575815 -9.95132e-05 0.00417271
38 2 9.52851 12.8519 8.88423 -0.00299132 -0.00526545 0.0217737
39 2 8.68205 11.4703 10.5721 -0.0002876 -0.00182765 -0.01042
40 1 12.5117 13.4626 5.50856 0.00017055 -0.00862199 0.00256491
41 2 3.88784 4.75899 4.44161 -0.0415469 0.00147058 0.0185794
42 2 11.5932 13.329 5.17923 0.0141003 0.0195256 0.00601163
43 1 4.19025 5.52737 3.95148 -0.00162322 -0.00699723 0.000586999
44 2 12.3193 8.05778 4.87858 -0.0191685 0.0218673 0.000317764
45 2 7.27471 12.9108 4.22231 0.00910919 0.00696658 7.3662e-05
46 1 9.86306 13.0808 7.94561 -0.00839565 -0.00332084 0.0042095
47 2 8.59299 12.7674 7.07341 0.0137381 0.000486433 0.0199238
48 2 10.357 12.2378 7.74975 0.0129679 0.0219865 -0.0152495
49 1 10.3109 6.58573 8.63069 0.000602035 0.00236929 -0.00748178
50 2 9.54625 6.02473 8.51125 0.015376 -0.0214674 -0.0203816
51 2 10.0411 7.25705 9.37654 0.0260966 -0.0102676 -0.0169543
52 1 9.26518 10.2469 4.44421 0.00435059 0.00575736 0.000770145
53 2 9.02657 9.85454 5.26603 0.0310029 0.024724 0.0089646
54 2 9.63346 11.1212 4.68625 -0.0046797 -0.00751276 -0.0123908
55 1 5.11159 10.8127 3.55377 0.00155589 0.00519559 -0.00321128
56 2 5.66754 10.052 3.27285 -0.00737555 0.0385736 0.00637451
57 2 4.31505 10.7195 3.12065 -0.019022 0.00772633 0.0190066
58 1 5.93541 10.7801 9.56358 -0.00463443 0.00212543 0.000355501
59 2 5.20662 13.0255 7.75595 -0.0199701 0.0273873 0.0214329
60 2 7.41692 11.683 9.68726 -0.0029912 0.00971213 0.00320827
61 1 7.92807 5.29664 6.09042 -0.000425606 -3.2452e-05 -0.00453337
62 2 7.91716 5.27221 7.07266 0.0213576 -0.0277818 0.024154
63 2 7.13937 5.76761 5.78588 -0.0164151 0.0011679 -0.0159842
64 1 5.68573 12.2147 7.39076 0.00253715 0.00114481 -0.00633029
65 2 4.63205 11.4465 6.52059 -0.0024632 -0.0142896 -0.00549123
66 2 3.6197 4.53002 6.81446 -0.0118329 -0.0230434 0.000411627
67 1 11.5155 10.629 7.82224 -3.06381e-06 0.00492361 -0.00065308
68 2 12.1894 10.5515 7.12508 -0.0101998 0.00302867 0.0124482
69 2 11.803 9.93808 8.51334 0.00985301 0.00551567 -0.00979772
70 1 10.1566 12.8208 4.21778 -0.00726091 -0.0013993 -0.00300202
71 2 9.8434 12.9968 3.30759 -0.0321068 -0.0323889 -0.00523895
72 2 9.39604 13.1245 4.74027 -0.00504535 -0.0194264 0.0251731
73 1 9.33212 8.82745 7.02548 0.000970878 -0.00520991 -0.00125706
74 2 9.66117 7.94042 7.22223 -0.000399933 0.00302138 -0.0172332
75 2 10.1079 9.31978 7.26217 0.00791519 -0.014066 -0.0126818
76 1 12.3808 5.01272 10.0345 0.00425078 0.00452834 -0.00286131
77 2 11.8391 5.59096 9.49624 0.0238266 -0.0162453 0.00840315
78 2 4.04794 5.8112 10.695 -0.00593097 -0.00734448 0.00631378
79 1 12.4916 8.79034 9.70301 0.00669727 0.00574667 0.00681295
80 2 12.7067 9.16858 10.6492 0.0243045 0.00816928 -0.0252458
81 2 5.68085 11.1967 8.61919 -0.0333173 -0.000823408 -0.00830915
82 1 7.40943 5.53487 11.4647 0.000849271 0.00201086 0.00797449
83 2 6.97253 4.82895 11.964 0.00379482 0.00265361 0.0151899
84 2 6.78948 6.25468 11.644 0.0074749 -0.0388842 -0.00678711
85 1 10.1304 13.674 11.2807 -0.00871874 -0.0056515 0.00171969
86 2 9.43638 4.47398 11.1907 0.0100533 0.00100868 -0.0220647
87 2 11.7763 4.4416 10.5306 0.0221138 0.0193898 -0.0169931
88 1 8.00847 12.5821 6.18925 0.00196761 -0.00205703 0.00550463
89 2 6.80435 12.5454 6.83362 -0.0822135 0.00383345 0.0174825
90 2 7.92774 13.5529 5.81364 0.000722348 0.0182935 -0.0211992
91 1 5.48263 6.75662 6.1231 0.00651989 -0.00580084 0.00976884
92 2 4.15576 7.93216 6.32229 -0.0160329 -0.00495544 -0.0021059
93 2 5.08494 6.33319 6.91348 0.00763406 0.00553678 0.0258448
94 1 4.12686 4.58384 7.68025 -0.000103367 -0.00379201 -0.00332046
95 2 3.49978 4.64313 8.43476 0.00153719 -0.0248353 0.0076297
96 2 4.87963 6.37281 5.41631 0.0212869 0.0236011 -0.00696778
ITEM: TIMESTEP
2
ITEM: NUMBER OF ATOMS
96
ITEM: BOX BOUNDS pp pp pp
2.9236100000000000e+00 1.2773600000000000e+01
4.0306300000000004e+00 1.3880599999999999e+01
2.1372399999999998e+00 1.1987200000000000e+01
ITEM: ATOMS id type x y z vx vy vz
1 1 7.06694 13.0148 3.29697 0.00319445 -0.00615845 -0.00201718
2 2 6.49352 12.2403 3.07134 0.00783876 0.0335392 0.0237292
3 2 9.77174 12.8787 11.0566 0.00766332 -0.0133385 0.00641239
4 1 12.2814 9.7847 2.3266 -0.00209693 0.00102028 -0.00191578
5 2 11.3374 10.0794 2.16604 0.0034517 -0.0190901 0.00945138
6 2 12.2456 9.01798 2.9544 0.00130334 -0.0136475 -0.00490319
7 1 12.1004 7.59738 4.01632 -0.00330631 0.00342839 0.00264312
8 2 11.0809 7.4103 4.03319 0.0116277 0.00518861 -0.0348242
9 2 8.11722 8.45458 8.68635 -0.0260309 0.0107286 -0.00339089
10 1 7.4863 8.27968 9.38376 0.00258265 0.00081664 -0.00161678
11 2 6.93058 7.55156 9.05841 0.00394088 0.0227314 0.0144716
12 2 6.38523 9.97605 9.36815 0.014868 0.0179241 -0.00437057
13 1 6.17716 8.68621 11.8516 -0.014831 -0.00186686 -0.00574897
14 2 6.27117 9.3592 11.174 -0.0222733 0.0101813 0.00265068
15 2 5.91725 7.9149 11.3796 0.00134246 -0.00677778 0.000512909
16 1 9.59404 7.74996 11.1303 -0.00169518 0.00108167 -0.00546695
17 2 9.62437 7.38845 2.17721 0.0107367 -0.00223835 -0.00789017
18 2 8.62957 7.67767 10.8166 0.0103248 -0.0127601 0.0351124
19 1 4.81491 6.25544 11.1107 -0.00020293 -0.00691504 0.000101693
20 2 4.78814 5.93295 2.19689 0.00649879 0.0240937 -0.018409
21 2 11.8541 8.11809 9.80191 -0.00313325 0.0153071 0.024702
22 1 9.61807 10.5344 11.6654 0.000251089 -0.00577419 0.00498019
23 2 9.23943 10.555 2.7051 -0.0155037 0.0288104 -0.0188725
24 2 9.70158 9.5548 11.421 0.0298279 -0.00865802 -0.0119583
25 1 3.30197 8.45735 6.35935 0.00748975 0.00546241 0.00501402
26 2 3.62047 9.37985 6.31311 0.00479276 -0.0151774 0.0259171
27 2 3.36951 6.13314 3.86323 -0.0110764 -0.0100924 -0.00808332
28 1 9.35378 7.23075 4.10412 0.00221865 0.00588966 -0.00430949
29 2 9.31093 6.88666 4.96266 -0.00209718 -0.000501306 -0.0247477
30 2 9.02053 8.08348 4.21664 0.0175366 0.020416 0.00716055
31 1 3.78744 11.0077 5.91163 -0.000635042 0.00351182 8.11484e-05
32 2 3.02617 12.4869 5.53473 0.0170691 -0.0249642 0.00856845
33 2 4.261 10.7974 5.04658 -0.0179543 -0.0077778 0.00467522
34 1 7.61615 5.11601 8.83661 0.00255549 0.00310497 -0.00623857
35 2 7.86631 4.17934 8.84589 -0.00642248 0.0116721 -0.000293476
36 2 7.37784 5.36573 9.80563 0.00773145 0.00957505 0.00188044
37 1 8.2634 12.1342 9.97904 0.00559331 -0.000108081 0.00394556
38 2 9.52688 12.8499 8.89417 -0.00340362 -0.00264938 0.0176477
39 2 8.68232 11.4693 10.5672 0.00152245 -0.00268995 -0.00897663
40 1 12.5118 13.4582 5.50982 0.000318536 -0.0089645 0.00250442
41 2 3.86646 4.75937 4.45104 -0.0434362 0.000443861 0.0188045
42 2 11.6003 13.3393 5.1822 0.013866 0.0214811 0.00567819
43 1 4.18939 5.52395 3.95176 -0.001886 -0.00670536 0.000559789
44 2 12.31 8.06846 4.87888 -0.0181272 0.0206662 0.000692221
45 2 7.27896 12.9139 4.22197 0.00794935 0.00536656 -0.00124866
46 1 9.85887 13.0791 7.94782 -0.00833728 -0.00370933 0.00466377
47 2 8.60044 12.7674 7.08349 0.0150111 -0.000516569 0.0193787
48 2 10.3637 12.2495 7.74177 0.0138469 0.0242444 -0.0164336
49 1 10.3112 6.58704 8.62706 0.000584212 0.00282052 -0.00711629
50 2 9.55375 6.01395 8.50138 0.0146121 -0.0213394 -0.0188683
51 2 10.0546 7.24976 9.3663 0.0274095 -0.0184301 -0.0234193
52 1 9.26736 10.2498 4.44457 0.00434735 0.00570881 0.000640171
53 2 9.04186 9.8663 5.27176 0.0299899 0.022017 0.0141372
54 2 9.63112 11.1177 4.6799 -0.00431143 -0.00568203 -0.0129539
55 1 5.11252 10.8153 3.55225 0.00206612 0.00544076 -0.00286654
56 2 5.66337 10.0711 3.27586 -0.00872278 0.0368163 0.005231
57 2 4.30351 10.7227 3.12858 -0.0266268 0.00501329 0.0128951
58 1 5.93309 10.7812 9.56372 -0.00467356 0.00240123 0.000162279
59 2 5.19737 13.0387 7.76559 -0.0166284 0.0248575 0.0166754
60 2 7.4148 11.6881 9.68873 -0.00540522 0.0105844 0.00268806
61 1 7.92792 5.29664 6.08811 -0.000161028 1.60583e-05 -0.00468521
62 2 7.92741 5.25858 7.08504 0.0193361 -0.0265293 0.024163
63 2 7.13042 5.76844 5.77832 -0.0187568 0.00175212 -0.0136412
64 1 5.68701 12.2153 7.38754 0.00255379 0.00139976 -0.00650405
65 2 4.62924 11.439 6.51714 -0.00891299 -0.0158275 -0.00855276
66 2 3.61371 4.51808 6.81607 -0.0120963 -0.0246987 0.00597542
67 1 11.5155 10.6314 7.82196 4.28958e-05 0.0046649 -0.000439792
68 2 12.1841 10.5532 7.13152 -0.0107433 0.00380142 0.0126467
69 2 11.8078 9.94172 8.50786 0.00910001 0.00892846 -0.0118461
70 1 10.1529 12.8201 4.21627 -0.00745764 -0.00130994 -0.00302892
71 2 9.82791 12.9806 3.30505 -0.0298449 -0.0322778 -0.0046278
72 2 9.39396 13.1147 4.7528 -0.00313957 -0.0197844 0.0247257
73 1 9.3326 8.82479 7.02485 0.000937394 -0.00539526 -0.00125871
74 2 9.66049 7.94144 7.21364 -0.00223472 0.00060581 -0.017053
75 2 10.1123 9.31408 7.25593 0.0098066 -0.00867905 -0.0122831
76 1 12.383 5.01497 10.033 0.00461373 0.00445976 -0.00288955
77 2 11.85 5.58318 9.50022 0.0193954 -0.0140323 0.00676355
78 2 4.04521 5.80783 10.698 -0.00494584 -0.0061521 0.00575754
79 1 12.495 8.79331 9.70645 0.00697645 0.00610457 0.00691949
80 2 12.7179 9.17204 10.6356 0.0208819 0.00594005 -0.0284176
81 2 5.6646 11.196 8.61622 -0.0314012 -0.00252349 -0.00289013
82 1 7.40985 5.53589 11.4688 0.000899045 0.00200029 0.00814928
83 2 6.97494 4.82948 11.9716 0.00591657 -0.000674714 0.0150932
84 2 6.79322 6.23567 11.6401 0.00656767 -0.0358014 -0.00837143
85 1 10.1262 13.6713 11.2816 -0.00814675 -0.00497882 0.00200715
86 2 9.44068 4.47468 11.1796 0.006912 0.00175759 -0.022218
87 2 11.7868 4.45128 10.5222 0.0191827 0.0185646 -0.0160724
88 1 8.00944 12.581 6.19201 0.00189922 -0.00199886 0.00554355
89 2 6.76059 12.5464 6.84344 -0.0922069 0.000607285 0.0217685
90 2 7.92784 13.5625 5.80278 -0.000124619 0.0187583 -0.0213746
91 1 5.48579 6.75368 6.12799 0.00614116 -0.00595003 0.00980726
92 2 4.14718 7.92937 6.32121 -0.0178162 -0.0063533 -0.00218992
93 2 5.08945 6.33597 6.92648 0.0102723 0.00547693 0.0255987
94 1 4.12683 4.58196 7.67856 -3.97206e-05 -0.00375273 -0.00344625
95 2 3.50059 4.63055 8.43785 0.00181215 -0.0254525 0.00459271
96 2 4.89128 6.385 5.41253 0.0249259 0.0248029 -0.00799037
ITEM: TIMESTEP
3
ITEM: NUMBER OF ATOMS
96
ITEM: BOX BOUNDS pp pp pp
2.9236100000000000e+00 1.2773600000000000e+01
4.0306300000000004e+00 1.3880599999999999e+01
2.1372399999999998e+00 1.1987200000000000e+01
ITEM: ATOMS id type x y z vx vy vz
1 1 7.06849 13.0116 3.29592 0.00308979 -0.00621923 -0.00214187
2 2 6.49809 12.2581 3.08401 0.00944237 0.0360651 0.0264658
3 2 9.77411 12.8694 11.059 0.00187523 -0.0235216 0.0033237
4 1 12.2804 9.78523 2.32563 -0.00211112 0.00108809 -0.00193834
5 2 11.34 10.0697 2.17105 0.00634427 -0.0193897 0.0104652
6 2 12.2461 9.0109 2.95193 0.000668959 -0.0144142 -0.00514402
7 1 12.0987 7.5991 4.01764 -0.00364015 0.00345101 0.00264725
8 2 11.0881 7.41322 4.01579 0.0167457 0.00640667 -0.0345555
9 2 8.10414 8.4597 8.68417 -0.0258116 0.00984447 -0.00577436
10 1 7.48755 8.28009 9.38297 0.00241974 0.000863268 -0.00149145
11 2 6.93331 7.56328 9.06554 0.00639333 0.0234265 0.0137347
12 2 6.39312 9.98396 9.36577 0.0166451 0.0137518 -0.00520843
13 1 6.16977 8.68533 11.8488 -0.0147208 -0.0016279 -0.0054749
14 2 6.26 9.36413 11.175 -0.0224638 0.00936085 0.00150062
15 2 5.91742 7.91076 11.3793 -0.00063801 -0.00969375 -0.00178057
16 1 9.59315 7.75053 11.1275 -0.0018456 0.00122679 -0.00566092
17 2 9.62921 7.38725 2.17307 0.00881959 -0.00259643 -0.00849321
18 2 8.63605 7.67142 10.8348 0.0148314 -0.012196 0.0372132
19 1 4.81479 6.25195 11.1108 -0.000259669 -0.00700712 0.000231997
20 2 4.79134 5.94538 2.18717 0.00623955 0.0251869 -0.0193641
21 2 11.8518 8.12506 9.81471 -0.00595049 0.0126691 0.0264606
22 1 9.61826 10.5314 11.6678 0.000513653 -0.00602319 0.0045861
23 2 9.23133 10.5694 2.69654 -0.0169971 0.0283525 -0.0151134
24 2 9.71597 9.55083 11.415 0.0274546 -0.00697785 -0.0113891
25 1 3.30574 8.45999 6.36184 0.00752987 0.00508868 0.00496381
26 2 3.62262 9.37334 6.32609 0.00411243 -0.0104207 0.0260189
27 2 3.36525 6.12732 3.85943 -0.00557421 -0.0130918 -0.00723894
28 1 9.35497 7.23362 4.10185 0.00253519 0.00562901 -0.00478062
29 2 9.30943 6.88544 4.95198 -0.00391156 -0.00457482 -0.0175502
30 2 9.02866 8.09578 4.22046 0.0152178 0.0281954 0.0080693
31 1 3.7873 11.0096 5.91171 1.04951e-05 0.00390863 0.000248978
32 2 3.03464 12.4757 5.53931 0.0163068 -0.0194442 0.00961039
33 2 4.25172 10.7937 5.04914 -0.0189387 -0.00712109 0.00524975
34 1 7.61742 5.11758 8.8335 0.00254494 0.00319843 -0.00618239
35 2 7.86309 4.18539 8.84629 -0.00633939 0.0120571 0.00189305
36 2 7.38195 5.36993 9.80574 0.00874775 0.00717757 -0.00158012
37 1 8.26615 12.1341 9.98095 0.00539737 -9.48424e-05 0.00368709
38 2 9.52511 12.8492 8.90188 -0.00357946 -0.000540274 0.0129727
39 2 8.68358 11.4677 10.5631 0.00356571 -0.00400889 -0.00722215
40 1 12.512 13.4536 5.51107 0.00057894 -0.00931417 0.00248428
41 2 3.8444 4.75944 4.46041 -0.044232 0.000225169 0.0183335
42 2 11.6071 13.3504 5.18491 0.0128042 0.0225297 0.0049386
43 1 4.18836 5.52067 3.95204 -0.00226033 -0.00646181 0.000601594
44 2 12.3012 8.07845 4.87928 -0.0173764 0.0191699 0.000759849
45 2 7.28266 12.9161 4.22106 0.0069522 0.00378402 -0.00212111
46 1 9.85472 13.0771 7.95027 -0.00825245 -0.0040099 0.00515884
47 2 8.608 12.7669 7.09279 0.0141424 -0.00169433 0.0166828
48 2 10.3708 12.2621 7.73331 0.0147315 0.0257779 -0.0171462
49 1 10.3115 6.58855 8.62358 0.000627838 0.00316497 -0.00687936
50 2 9.56086 6.00339 8.49238 0.0138662 -0.0206661 -0.0169223
51 2 10.0685 7.23862 9.35312 0.0275712 -0.0254171 -0.0283872
52 1 9.26953 10.2526 4.44485 0.00431103 0.00558793 0.000496666
53 2 9.05656 9.87656 5.28017 0.0287339 0.0188172 0.019419
54 2 9.62915 11.1155 4.67329 -0.00324895 -0.00236415 -0.0134566
55 1 5.11366 10.8181 3.55091 0.00240955 0.00580977 -0.00250763
56 2 5.65882 10.0888 3.27809 -0.00896235 0.0331464 0.00324143
57 2 4.28842 10.7245 3.13355 -0.0327935 0.00220744 0.00741459
58 1 5.93074 10.7825 9.56374 -0.00473585 0.00271358 -7.81836e-05
59 2 5.18999 13.0503 7.77262 -0.0127008 0.021412 0.0111456
60 2 7.41152 11.6936 9.68995 -0.00753425 0.0115264 0.00228385
61 1 7.9279 5.29666 6.08574 5.32407e-05 5.88527e-05 -0.00475087
62 2 7.9365 5.24568 7.09683 0.0167555 -0.0248392 0.0218273
63 2 7.12061 5.76936 5.77224 -0.0198743 0.00154889 -0.0101128
64 1 5.68828 12.2161 7.38425 0.00252341 0.00177259 -0.00660263
65 2 4.62313 11.4307 6.51204 -0.0154615 -0.0174845 -0.0119666
66 2 3.60761 4.50532 6.82044 -0.0122841 -0.0263158 0.0112813
67 1 11.5155 10.6337 7.8218 3.45504e-05 0.00443 -0.000190994
68 2 12.1787 10.5553 7.13773 -0.0104122 0.0046648 0.0115657
69 2 11.8121 9.94701 8.50149 0.00816858 0.0120179 -0.0132924
70 1 10.1492 12.8195 4.21475 -0.00766227 -0.00120654 -0.00305044
71 2 9.81355 12.9645 3.30296 -0.0276498 -0.0320142 -0.00351616
72 2 9.3929 13.1047 4.76499 -0.00108345 -0.0203167 0.0238427
73 1 9.33306 8.82205 7.02422 0.000903395 -0.00552137 -0.00127387
74 2 9.65894 7.94103 7.20518 -0.00385704 -0.00255167 -0.0166916
75 2 10.1177 9.3111 7.24989 0.0115053 -0.00341823 -0.0118834
76 1 12.3854 5.01718 10.0316 0.005129 0.00437749 -0.00290578
77 2 11.8585 5.57692 9.50301 0.0138428 -0.0103451 0.00375393
78 2 4.04299 5.80505 10.7008 -0.00396553 -0.005016 0.00524339
79 1 12.4986 8.79644 9.70993 0.00723689 0.00640607 0.00691379
80 2 12.7275 9.17452 10.6207 0.0179429 0.00432854 -0.0300088
81 2 5.64945 11.1942 8.6163 -0.0289715 -0.0049807 0.0037593
82 1 7.41033 5.53687 11.4729 0.00106577 0.00184322 0.00827987
83 2 6.97845 4.82827 11.9791 0.00819756 -0.00428323 0.0149755
84 2 6.79605 6.21888 11.6356 0.00382025 -0.0300347 -0.00950302
85 1 10.1223 13.669 11.2827 -0.00754753 -0.00431607 0.00230551
86 2 9.44329 4.47574 11.1685 0.00342195 0.00232595 -0.0224524
87 2 11.7955 4.46017 10.5146 0.0150141 0.0163293 -0.0139254
88 1 8.01037 12.5801 6.19479 0.00183526 -0.00175512 0.00556846
89 2 6.71214 12.546 6.85539 -0.100543 -0.00218874 0.0257046
90 2 7.92761 13.5717 5.79227 -0.000620375 0.0166918 -0.0197341
91 1 5.48878 6.75067 6.13291 0.00584446 -0.00606443 0.00987819
92 2 4.13794 7.9258 6.3201 -0.0186362 -0.00807806 -0.00228094
93 2 5.09521 6.33867 6.93908 0.0125376 0.00522977 0.0242243
94 1 4.12682 4.58009 7.67681 2.60995e-05 -0.00373341 -0.00354605
95 2 3.5016 4.61768 8.43935 0.00231305 -0.0260368 0.00142772
96 2 4.90456 6.39761 5.40832 0.0277818 0.0252484 -0.00870505
ITEM: TIMESTEP
4
ITEM: NUMBER OF ATOMS
96
ITEM: BOX BOUNDS pp pp pp
2.9236100000000000e+00 1.2773600000000000e+01
4.0306300000000004e+00 1.3880599999999999e+01
2.1372399999999998e+00 1.1987200000000000e+01
ITEM: ATOMS id type x y z vx vy vz
1 1 7.07003 13.0085 3.29483 0.00311393 -0.00611013 -0.00222491
2 2 6.50296 12.2764 3.09781 0.00889902 0.035763 0.0281395
3 2 9.77361 12.8552 11.0599 -0.00359436 -0.0322276 0.000543352
4 1 12.2793 9.78579 2.32467 -0.00208087 0.00109576 -0.00188824
5 2 11.3438 10.06 2.1765 0.00835627 -0.0191379 0.0111668
6 2 12.2463 9.00356 2.94925 0.000333985 -0.0146662 -0.00572181
7 1 12.0968 7.60083 4.01897 -0.00386967 0.00350335 0.00264228
8 2 11.0976 7.41671 3.99863 0.0205299 0.00745914 -0.0338621
9 2 8.0914 8.46442 8.68057 -0.0246979 0.00920097 -0.00902804
10 1 7.48872 8.28055 9.38226 0.00226487 0.000993121 -0.00127594
11 2 6.93697 7.57499 9.07214 0.00762389 0.0225991 0.0123194
12 2 6.40188 9.9898 9.36294 0.0182597 0.00982483 -0.00608519
13 1 6.16243 8.68458 11.8461 -0.0146111 -0.00138673 -0.00519781
14 2 6.24871 9.36856 11.1755 -0.0227445 0.00819311 0.000361184
15 2 5.91661 7.9052 11.3778 -0.00251393 -0.0123145 -0.00417912
16 1 9.5922 7.75118 11.1246 -0.00189881 0.00137374 -0.00579959
17 2 9.63319 7.38586 2.16872 0.00733164 -0.00296826 -0.00871059
18 2 8.6444 7.66547 10.8538 0.0176525 -0.0116207 0.0382899
19 1 4.81465 6.24843 11.111 -0.000300378 -0.00703267 0.00022076
20 2 4.79438 5.95814 2.17752 0.0058355 0.0254309 -0.0181054
21 2 11.8481 8.13075 9.82837 -0.00851458 0.01033 0.0281487
22 1 9.61858 10.5284 11.67 0.000796059 -0.0062464 0.00411175
23 2 9.22244 10.5834 2.68999 -0.0185619 0.0270065 -0.0110084
24 2 9.72903 9.54783 11.4096 0.0245394 -0.00483601 -0.00988632
25 1 3.3095 8.46244 6.36431 0.00745823 0.0046771 0.00491721
26 2 3.62458 9.36943 6.33912 0.00403306 -0.00495787 0.0261662
27 2 3.36393 6.12005 3.85599 0.000443727 -0.0157879 -0.00664744
28 1 9.35631 7.23638 4.09934 0.00280538 0.00548142 -0.00527122
29 2 9.30701 6.88209 4.94511 -0.00579129 -0.0087406 -0.00997263
30 2 9.03575 8.11167 4.22471 0.0135513 0.0342926 0.00889034
31 1 3.78745 11.0116 5.91188 0.000565352 0.00429088 0.000417476
32 2 3.04248 12.4674 5.54434 0.0145876 -0.0133505 0.0103287
33 2 4.24206 10.7903 5.05183 -0.0193861 -0.00656335 0.00509169
34 1 7.61869 5.11921 8.83042 0.00251869 0.00334351 -0.00610688
35 2 7.85997 4.1914 8.84778 -0.00600448 0.0115191 0.00399508
36 2 7.38659 5.37291 9.80405 0.00981149 0.00481929 -0.00523575
37 1 8.2688 12.1341 9.98273 0.00517279 -6.82321e-05 0.00340664
38 2 9.5233 12.8494 8.90715 -0.00358329 0.000976558 0.00806919
39 2 8.68589 11.4653 10.56 0.00566022 -0.00569012 -0.00532538
40 1 12.5123 13.4489 5.51231 0.000935376 -0.00964671 0.00250197
41 2 3.82223 4.7596 4.46937 -0.0438643 0.000768659 0.0171666
42 2 11.6131 13.3619 5.18714 0.0110038 0.0226821 0.00382095
43 1 4.18713 5.51749 3.95236 -0.00272664 -0.00628394 0.000714751
44 2 12.2927 8.08763 4.87964 -0.0168824 0.0174279 0.000578103
45 2 7.28591 12.9177 4.21985 0.00619898 0.00228512 -0.00242802
46 1 9.85062 13.0751 7.95298 -0.00813726 -0.00421433 0.00567058
47 2 8.61458 12.7657 7.10018 0.011197 -0.00308001 0.0118069
48 2 10.3784 12.2753 7.72462 0.0156382 0.0265642 -0.0173697
49 1 10.3118 6.5902 8.62018 0.000738196 0.00337348 -0.00680404
50 2 9.56761 5.99329 8.48446 0.0131512 -0.0195407 -0.0146278
51 2 10.0822 7.22435 9.33791 0.0265205 -0.0306767 -0.0312982
52 1 9.27167 10.2553 4.44507 0.00423975 0.00539382 0.000373752
53 2 9.0706 9.88512 5.29118 0.0274178 0.0154337 0.0242938
54 2 9.62787 11.1153 4.66644 -0.00163366 0.00214158 -0.0139541
55 1 5.11493 10.8211 3.54974 0.00254669 0.00627766 -0.00216119
56 2 5.65441 10.1042 3.27911 -0.00818271 0.0277833 0.000490591
57 2 4.27071 10.7249 3.13599 -0.0368328 -0.000555791 0.00292262
58 1 5.92835 10.7839 9.56364 -0.00480405 0.00303297 -0.000348346
59 2 5.18467 13.0601 7.77674 -0.0085028 0.0174133 0.00512613
60 2 7.40726 11.6996 9.69101 -0.00922397 0.0125336 0.00208634
61 1 7.92798 5.2967 6.08336 0.000214293 9.352e-05 -0.00473739
62 2 7.94416 5.23374 7.10687 0.0137132 -0.0227484 0.0173788
63 2 7.11055 5.76999 5.7682 -0.0197846 0.000594173 -0.00558624
64 1 5.68953 12.2171 7.38094 0.00243161 0.00222522 -0.0066221
65 2 4.61378 11.4215 6.50517 -0.0217107 -0.0191188 -0.0154135
66 2 3.60142 4.49176 6.82735 -0.0124872 -0.0278895 0.0160028
67 1 11.5155 10.6359 7.82177 -3.51734e-05 0.00423004 7.85052e-05
68 2 12.1737 10.5579 7.14308 -0.00924808 0.00559911 0.00926636
69 2 11.8159 9.95373 8.49457 0.00716041 0.0145921 -0.013979
70 1 10.1453 12.8189 4.21322 -0.00786306 -0.00109675 -0.00306437
71 2 9.80026 12.9486 3.30153 -0.0255656 -0.0315689 -0.00201798
72 2 9.39288 13.0944 4.77665 0.000920606 -0.0209717 0.0226482
73 1 9.3335 8.81927 7.02358 0.000889527 -0.00558488 -0.00129707
74 2 9.65663 7.93889 7.19695 -0.00523212 -0.00610955 -0.0161647
75 2 10.1238 9.31067 7.24404 0.0126891 0.0013512 -0.0115523
76 1 12.3881 5.01935 10.0301 0.00575381 0.00428938 -0.00291719
77 2 11.8639 5.57284 9.50398 0.0075368 -0.00555612 -0.000298808
78 2 4.04124 5.80281 10.7033 -0.00310689 -0.00400983 0.00473288
79 1 12.5022 8.79971 9.71337 0.00745496 0.00662514 0.00679018
80 2 12.7358 9.17637 10.6055 0.0156181 0.0034553 -0.0298565
81 2 5.63563 11.191 8.61998 -0.0261657 -0.00804344 0.0112775