ITEM: TIMESTEP
0
ITEM: NUMBER OF ATOMS
96
ITEM: BOX BOUNDS pp pp pp
2.9236100000000000e+00 1.2773600000000000e+01
4.0306300000000004e+00 1.3880599999999999e+01
2.1372399999999998e+00 1.1987200000000000e+01
ITEM: ATOMS id type x y z vx vy vz
1 1 7.04905 13.0336 3.30128 0.00583514 -0.00318059 7.78711e-05
2 2 6.53769 12.2234 3.04498 -0.0286151 -0.0257297 -0.00876017
3 2 9.69424 12.833 11.0023 0.013322 0.00776359 0.012094
4 1 12.2892 9.78356 2.33157 -0.00199732 -0.000509296 -0.0004808
5 2 11.3802 10.1358 2.15238 -0.0207274 -0.00867608 -0.00272918
6 2 12.2201 9.04194 2.98251 0.012461 0.00243053 -0.00951163
7 1 12.1062 7.58334 4.00631 0.000170661 0.00353555 0.00224007
8 2 11.128 7.4068 4.15304 -0.0272577 -0.00109773 -0.021121
9 2 8.18303 8.39449 8.70567 -0.00204499 0.0175543 -0.0124561
10 1 7.47449 8.27462 9.38795 0.00293958 0.00184075 0.000105821
11 2 6.98361 7.51532 9.01588 -0.0290562 -0.00541538 0.00372811
12 2 6.34306 9.86405 9.38055 0.0107128 0.0266843 -0.00368236
13 1 6.23737 8.69547 11.877 -0.0149682 -0.00217419 -0.00626255
14 2 6.36197 9.3168 11.1518 -0.0240287 0.00988025 0.0054919
15 2 5.88734 7.91734 11.37 0.0102199 -0.00296772 -0.00443139
16 1 9.59649 7.74808 11.1476 0.000226236 -0.000230053 -0.00326518
17 2 9.54069 7.3909 2.19298 0.0312133 0.00145738 -0.00133558
18 2 8.68846 7.73355 10.7387 -0.0342359 -0.013724 0.00324025
19 1 4.81493 6.27967 11.117 6.73845e-05 -0.00516538 -0.00339177
20 2 4.76422 5.8846 2.18719 0.00457291 -0.00185318 0.0252288
21 2 11.8378 8.03149 9.7256 0.00462272 0.020693 0.0161573
22 1 9.61925 10.5526 11.6453 -0.000359118 -0.00315486 0.00376911
23 2 9.29492 10.4779 2.79515 -0.0170034 0.00205943 -0.0141102
24 2 9.56962 9.59068 11.4288 0.032082 -0.00592361 0.0159704
25 1 3.27735 8.43284 6.33814 0.00433403 0.00604189 0.00567176
26 2 3.56662 9.44816 6.21485 0.0245172 -0.0036739 0.0214972
27 2 3.44218 6.13933 3.91358 -0.0101306 0.000813671 -0.0169776
28 1 9.34939 7.2024 4.12006 0.000559874 0.00757215 -0.00516267
29 2 9.29316 6.86642 5.07768 0.0100188 0.00173282 -0.00998741
30 2 8.92557 8.09444 4.20158 0.021149 -0.00605203 0.00207292
31 1 3.80164 10.9994 5.91357 -0.00618429 0.000865259 -0.00093274
32 2 2.99593 12.6153 5.52705 -0.0109972 -0.0230385 -0.00572421
33 2 4.3055 10.8373 5.0434 -0.00496264 -0.0108856 0.00021785
34 1 7.60673 5.10267 8.86033 0.0019772 0.00388071 -0.00505149
35 2 7.88632 4.16568 8.8773 -0.00365135 -0.00509444 -0.0128951
36 2 7.35074 5.30384 9.78082 0.00975203 0.0161201 -0.000135086
37 1 8.23939 12.1335 9.96101 0.00614304 0.000729295 0.00466228
38 2 9.52138 12.9086 8.79704 0.010513 -0.026027 0.016339
39 2 8.68839 11.4813 10.6087 0.00152716 -0.00648906 -0.00605808
40 1 12.5091 13.4906 5.49767 0.00198031 -0.0081277 0.00383928
41 2 3.98567 4.72612 4.39334 -0.0116372 0.0158944 0.00880984
42 2 11.5651 13.3081 5.16525 -0.00118245 -0.0103279 0.000648574
43 1 4.19686 5.5551 3.94764 -0.00303543 -0.0083105 0.00168254
44 2 12.4095 7.9771 4.89207 -0.034179 0.0222733 -0.00915916
45 2 7.23101 12.8699 4.20759 0.013789 0.01496 0.00441985
46 1 9.893 13.0863 7.93378 -0.00877053 0.000124243 0.00334637
47 2 8.61388 12.7565 7.03767 -0.0307787 0.00499896 -0.00108721
48 2 10.3253 12.2025 7.77765 0.00362614 -0.00162319 0.000194373
49 1 10.3071 6.58381 8.66269 0.00182059 -0.000810809 -0.0104212
50 2 9.48652 6.08026 8.5824 0.0164622 -0.00585449 -0.0156682
51 2 9.99278 7.20024 9.35248 -0.000886655 0.031105 0.0217864
52 1 9.25037 10.2275 4.44195 0.00417862 0.00531126 -2.04094e-05
53 2 8.92479 9.76656 5.26775 0.021704 0.0173302 -0.000834639
54 2 9.63044 11.1203 4.71987 0.0103313 0.0156853 -0.00673742
55 1 5.11324 10.7928 3.56644 -0.00176338 0.00708406 -0.00299579
56 2 5.64872 9.95479 3.26332 0.020637 0.0072658 -0.00581404
57 2 4.30504 10.6732 2.9981 0.0104893 0.0135598 0.0388935
58 1 5.95268 10.7731 9.5621 -0.00562578 0.00270847 -1.65102e-05
59 2 5.27842 12.9591 7.66209 -0.0111941 -0.00627997 0.0231004
60 2 7.39953 11.6578 9.67252 0.0106555 0.00501088 0.00346173
61 1 7.93332 5.29779 6.10234 -0.00229074 -0.00093467 -0.00223256
62 2 7.83944 5.36974 7.0543 0.0179978 -0.0244058 -0.0202579
63 2 7.14317 5.78735 5.82898 0.0137996 -0.0121122 -0.00121623
64 1 5.67975 12.2085 7.40787 0.000111472 0.00364438 -0.00283246
65 2 4.5807 11.4831 6.52357 0.0258181 -0.00729622 -0.00108948
66 2 3.64826 4.58983 6.86259 -0.00117382 -0.0111787 -0.0184344
67 1 11.5166 10.6089 7.82543 -0.000448377 0.00626052 -0.000769445
68 2 12.1981 10.5462 7.11584 0.00633911 0.00118243 -0.0100709
69 2 11.7707 9.95486 8.51905 0.00526551 -0.0103885 0.00345691
70 1 10.1804 12.8261 4.22776 -0.00649681 -0.00151273 -0.0026134
71 2 9.98461 13.1083 3.31557 -0.0489726 -0.0306191 0.00320762
72 2 9.42084 13.195 4.66668 -0.00515994 -0.0219792 0.0128506
73 1 9.32947 8.84246 7.03058 0.000200758 -0.00345256 -0.00181934
74 2 9.63859 7.93486 7.27917 0.0119324 -0.00717242 -0.0145015
75 2 10.089 9.41528 7.30584 0.0086763 -0.0322 -0.0101906
76 1 12.3644 4.99687 10.0435 0.00622724 0.00428667 -0.00215976
77 2 11.7486 5.62174 9.49416 0.0177296 0.00780619 -0.0149383
78 2 4.07375 5.84866 10.6619 -0.0065009 -0.0128604 0.0138013
79 1 12.4706 8.77429 9.68303 0.00579291 0.003906 0.00436059
80 2 12.5778 9.10476 10.6672 0.0465174 0.0270438 0.0165237
81 2 5.80165 11.2026 8.66694 -0.0318862 -0.00638972 -0.00902364
82 1 7.4041 5.53162 11.4403 0.00245771 -0.000644109 0.00578722
83 2 6.98054 4.79545 11.9101 -0.00684679 0.0115689 0.0153071
84 2 6.79978 6.34594 11.6367 -0.018648 0.000175412 0.0115844
85 1 10.1636 13.6986 11.2764 -0.00883943 -0.0071695 0.00121338
86 2 9.39181 4.46987 11.269 0.00700441 0.0044573 -0.0231053
87 2 11.7062 4.40775 10.563 0.0102729 -0.00609293 0.00381544
88 1 7.99997 12.5858 6.17181 0.00293818 0.000339361 0.00414269
89 2 6.94444 12.4863 6.8176 0.00469368 0.0295001 -0.00619276
90 2 7.90777 13.5543 5.84481 0.0115592 -0.02443 0.00660647
91 1 5.45375 6.77468 6.08857 0.00996561 -0.00456064 0.00998721
92 2 4.16671 7.94542 6.32775 0.0114629 -0.00477217 -0.000634725
93 2 5.09557 6.31492 6.85573 -0.0135354 0.00499294 0.00130264
94 1 4.12879 4.5982 7.69031 -0.00129628 -0.00451146 -0.00263363
95 2 3.48552 4.72342 8.39062 0.00927358 -0.0214685 0.0112137
96 2 4.8633 6.32246 5.41622 -0.0115709 0.00366439 0.01038
ITEM: TIMESTEP
1
ITEM: NUMBER OF ATOMS
96
ITEM: BOX BOUNDS pp pp pp
2.9236100000000000e+00 1.2773600000000000e+01
4.0306300000000004e+00 1.3880599999999999e+01
2.1372399999999998e+00 1.1987200000000000e+01
ITEM: ATOMS id type x y z vx vy vz
1 1 7.05191 13.032 3.30125 0.00556531 -0.00345684 -0.00021786
2 2 6.52385 12.2116 3.04108 -0.0259824 -0.0203174 -0.00626232
3 2 9.70238 12.8388 11.009 0.0185411 0.0143573 0.0142183
4 1 12.2882 9.78334 2.3313 -0.00190857 -0.000351382 -0.000623489
5 2 11.37 10.1312 2.15133 -0.0196832 -0.00973704 -0.00137074
6 2 12.226 9.04278 2.97778 0.0109214 0.000701489 -0.00921824
7 1 12.1062 7.58512 4.00746 -9.41979e-05 0.00356692 0.00233287
8 2 11.1145 7.40618 4.14182 -0.0260675 -0.00122725 -0.0237805
9 2 8.18113 8.40333 8.70003 -0.00575975 0.0175747 -0.0100203
10 1 7.47598 8.27552 9.38792 0.00301604 0.00173514 -0.000230302
11 2 6.96961 7.51311 9.01818 -0.026417 -0.00286982 0.00556758
12 2 6.34814 9.87825 9.37881 0.00976157 0.0295629 -0.003286
13 1 6.22986 8.69434 11.8738 -0.015053 -0.0023197 -0.00642163
14 2 6.35008 9.3218 11.1548 -0.0235526 0.0101285 0.00619418
15 2 5.89252 7.9165 11.3687 0.0103122 -0.000699972 -0.00104333
16 1 9.5966 7.74802 11.1459 0.000151536 -3.32224e-05 -0.00345973
17 2 9.55574 7.39147 2.19231 0.0288743 0.000843159 -0.00147818
18 2 8.6717 7.72658 10.7411 -0.0318849 -0.0141014 0.00659075
19 1 4.81497 6.27705 11.1154 7.86598e-05 -0.00534274 -0.00301961
20 2 4.76661 5.88437 2.19895 0.004994 0.0012419 0.0209948
21 2 11.8405 8.04234 9.73364 0.0058227 0.022435 0.0162055
22 1 9.61905 10.5509 11.6473 -0.000428051 -0.00353543 0.00428491
23 2 9.28687 10.4803 2.78689 -0.0153525 0.00732759 -0.0184711
24 2 9.58587 9.58752 11.4355 0.0328416 -0.00682804 0.0106426
25 1 3.27962 8.4359 6.34095 0.0047876 0.00619142 0.00556761
26 2 3.57821 9.44481 6.2259 0.0217273 -0.00943481 0.022635
27 2 3.43583 6.13997 3.90533 -0.0148253 0.00151055 -0.0159843
28 1 9.34966 7.20622 4.11762 0.000548143 0.00765125 -0.0046368
29 2 9.29789 6.86782 5.07057 0.00885089 0.00376171 -0.0180863
30 2 8.93692 8.09032 4.2026 0.0238241 -0.00955045 0.00207812
31 1 3.79867 10.9999 5.91312 -0.00564196 0.00113991 -0.000847611
32 2 2.9919 12.6024 5.52467 -0.00516851 -0.0282863 -0.00377049
33 2 4.30279 10.8318 5.04326 -0.00603474 -0.0109407 -0.000578798
34 1 7.60775 5.10457 8.85772 0.00209458 0.00372087 -0.00537656
35 2 7.88449 4.16341 8.87097 -0.00375775 -0.00366948 -0.0122619
36 2 7.35519 5.31219 9.7817 0.00820754 0.0170631 0.00336017
37 1 8.24246 12.1338 9.96335 0.00614663 0.000549411 0.00468774
38 2 9.52584 12.8961 8.80652 0.00743437 -0.0237804 0.0211213
39 2 8.68862 11.4783 10.6051 -0.000400164 -0.00540697 -0.00812019
40 1 12.51 13.4866 5.49953 0.00154689 -0.00792862 0.00361379
41 2 3.97867 4.734 4.39794 -0.0164392 0.0151211 0.00981794
42 2 11.5652 13.3041 5.1658 0.00159099 -0.00562909 0.00163714
43 1 4.19547 5.55092 3.94845 -0.00256333 -0.00835982 0.00153836
44 2 12.3931 7.98836 4.88782 -0.0315775 0.0227547 -0.0076991
45 2 7.238 12.8773 4.21016 0.0139897 0.0143823 0.00550722
46 1 9.88863 13.0863 7.93541 -0.00869498 -0.000288135 0.00319106
47 2 8.60003 12.7589 7.03761 -0.0240419 0.00464469 0.00135996
48 2 10.3276 12.2023 7.77722 0.00558487 0.00116255 -0.00203082
49 1 10.308 6.58344 8.65751 0.00159729 -0.000608448 -0.0102325
50 2 9.49503 6.07642 8.57397 0.0173324 -0.0093925 -0.017863
51 2 9.99326 7.21597 9.3634 0.00311757 0.0304798 0.020651
52 1 9.25245 10.2302 4.44201 0.00415772 0.00533124 0.000263446
53 2 8.93648 9.77622 5.26684 0.024863 0.0210499 -0.00246683
54 2 9.63484 11.1269 4.71635 0.00722247 0.0106029 -0.00742771
55 1 5.11237 10.7962 3.56482 -0.0016366 0.00653194 -0.00340753
56 2 5.65808 9.96014 3.26122 0.0164934 0.0141985 -0.00267268
57 2 4.31088 10.6803 3.01828 0.0119313 0.0146716 0.0409372
58 1 5.94994 10.7743 9.56215 -0.00535865 0.00232598 0.000201796
59 2 5.27172 12.9586 7.67431 -0.0154708 0.00396147 0.0256134
60 2 7.40466 11.6605 9.67445 0.00967042 0.00560153 0.00412274
61 1 7.93219 5.2974 6.10117 -0.00218814 -0.000655935 -0.00249503
62 2 7.84902 5.35706 7.04571 0.0201362 -0.0261182 -0.0133845
63 2 7.14944 5.78145 5.82735 0.0106706 -0.0110477 -0.00529631
64 1 5.67996 12.2101 7.40628 0.000704059 0.00291938 -0.00350686
65 2 4.59322 11.4792 6.52328 0.0239173 -0.00817658 -0.000212294
66 2 3.64696 4.58383 6.85293 -0.00388368 -0.0128384 -0.0195027
67 1 11.5164 10.612 7.82501 -0.000504292 0.0062085 -0.000879816
68 2 12.2008 10.5467 7.11159 0.00422701 0.001046 -0.0066327
69 2 11.7738 9.94962 8.5208 0.00710502 -0.01013 0.00312632
70 1 10.1771 12.8253 4.22643 -0.0065606 -0.00151817 -0.00270765
71 2 9.96077 13.0928 3.3168 -0.0464062 -0.0311458 0.00154716
72 2 9.41797 13.1841 4.67383 -0.00629594 -0.0213841 0.0157229
73 1 9.32963 8.8407 7.0297 0.000420952 -0.00363185 -0.00169161
74 2 9.64436 7.93222 7.27179 0.0109059 -0.00353265 -0.0150538
75 2 10.0927 9.39889 7.30044 0.00647559 -0.0327951 -0.0112997
76 1 12.3674 4.99905 10.0424 0.00561383 0.00440545 -0.00230776
77 2 11.7585 5.62422 9.48797 0.021689 0.00202862 -0.00971026
78 2 4.07031 5.84231 10.6684 -0.00719981 -0.0124964 0.0123488
79 1 12.4735 8.77625 9.6853 0.00574119 0.00395979 0.00473708
80 2 12.6007 9.11791 10.6742 0.0447246 0.0252248 0.0109133
81 2 5.78535 11.1999 8.66163 -0.0332336 -0.00459189 -0.0119677
82 1 7.40527 5.53141 11.4433 0.0022069 -0.000165628 0.00613783
83 2 6.97731 4.8014 11.9178 -0.00594636 0.0120036 0.0154734
84 2 6.79152 6.34378 11.6419 -0.0140671 -0.00885939 0.00908729
85 1 10.159 13.6949 11.277 -0.00931818 -0.00737628 0.00112019
86 2 9.39622 4.47173 11.2575 0.0102876 0.0030245 -0.0228807
87 2 11.7123 4.40585 10.5639 0.0140504 -0.00125329 -0.000244851
88 1 8.00142 12.5859 6.17395 0.002825 -7.00715e-05 0.00442843
89 2 6.94368 12.5003 6.81518 -0.00798042 0.0263581 -0.00345876
90 2 7.91309 13.5435 5.84722 0.00973983 -0.0179768 0.00258238
91 1 5.45863 6.77236 6.09357 0.00953195 -0.0047106 0.00998014
92 2 4.17157 7.94313 6.32734 0.00763541 -0.00431802 -0.000984231
93 2 5.08949 6.31743 6.8576 -0.0107158 0.00502665 0.00626815
94 1 4.12821 4.59598 7.689 -0.00102008 -0.00437973 -0.00263147
95 2 3.4897 4.7126 8.39673 0.00743911 -0.0218078 0.0129254
96 2 4.85845 6.32499 5.42043 -0.00752716 0.00661087 0.00667574
ITEM: TIMESTEP
2
ITEM: NUMBER OF ATOMS
96
ITEM: BOX BOUNDS pp pp pp
2.9236100000000000e+00 1.2773600000000000e+01
4.0306300000000004e+00 1.3880599999999999e+01
2.1372399999999998e+00 1.1987200000000000e+01
ITEM: ATOMS id type x y z vx vy vz
1 1 7.05462 13.0301 3.30106 0.00522951 -0.00383424 -0.000528904
2 2 6.51171 12.2031 3.03872 -0.0219968 -0.0130968 -0.00275963
3 2 9.71278 12.8474 11.0165 0.0221797 0.0187245 0.0156278
4 1 12.2873 9.78321 2.33095 -0.00186251 -0.000154969 -0.000812196
5 2 11.3605 10.1261 2.15101 -0.0177495 -0.0110695 0.000140919
6 2 12.231 9.04264 2.97329 0.00931807 -0.0014099 -0.0086109
7 1 12.1061 7.58691 4.00864 -0.000456615 0.00357153 0.00241171
8 2 11.1019 7.40557 4.12926 -0.0232955 -0.00102976 -0.0263917
9 2 8.17727 8.41206 8.69565 -0.00977816 0.0171833 -0.00754664
10 1 7.47751 8.27636 9.38772 0.00306233 0.00158802 -0.000572764
11 2 6.95719 7.51245 9.02145 -0.0227944 0.000652349 0.00755431
12 2 6.35282 9.89361 9.37726 0.00918345 0.0312477 -0.00294019
13 1 6.22232 8.69315 11.8706 -0.0151097 -0.00242182 -0.00651878
14 2 6.33842 9.32693 11.158 -0.0231305 0.0103851 0.00655479
15 2 5.89765 7.91664 11.369 0.0100358 0.000897299 0.00165366
16 1 9.59664 7.74805 11.1441 -1.75246e-05 0.000151905 -0.00371335
17 2 9.56956 7.39174 2.1915 0.0263319 0.00026823 -0.00190602
18 2 8.65658 7.71945 10.7453 -0.0278321 -0.0143349 0.0106065
19 1 4.81501 6.27433 11.114 7.62529e-05 -0.00556132 -0.0025593
20 2 4.76921 5.88584 2.20818 0.00543296 0.00483357 0.0153776
21 2 11.8436 8.05393 9.74181 0.00646949 0.0235539 0.0166275
22 1 9.61882 10.5491 11.6496 -0.000463799 -0.00390182 0.00473581
23 2 9.27957 10.4852 2.77668 -0.0140411 0.0124056 -0.0218757
24 2 9.60246 9.58385 11.4394 0.0334434 -0.00790119 0.0053817
25 1 3.28214 8.43903 6.34371 0.00528256 0.00629205 0.0054668
26 2 3.58835 9.43873 6.23749 0.0187856 -0.0144199 0.0236128
27 2 3.42735 6.14084 3.8976 -0.0184996 0.0016735 -0.0149283
28 1 9.34994 7.21005 4.11542 0.000608043 0.00763031 -0.00418156
29 2 9.30201 6.87018 5.05959 0.00757109 0.00548072 -0.0251797
30 2 8.94939 8.08489 4.20366 0.0255708 -0.011152 0.00226418
31 1 3.796 11.0005 5.91272 -0.00502675 0.00142593 -0.000747648
32 2 2.99076 12.587 5.52328 0.000418183 -0.0324174 -0.00177702
33 2 4.29947 10.8264 5.04282 -0.00741624 -0.0108737 -0.000934543
34 1 7.60882 5.10639 8.85495 0.00220764 0.00355507 -0.00566047
35 2 7.88256 4.16201 8.86504 -0.00404847 -0.00165918 -0.0113001
36 2 7.35895 5.3209 9.78418 0.00701349 0.0175101 0.00616167
37 1 8.24554 12.134 9.9657 0.0061381 0.000380471 0.00469339
38 2 9.52881 12.8848 8.81816 0.00464385 -0.0211007 0.0248013
39 2 8.68799 11.4759 10.6006 -0.00187286 -0.00428226 -0.00983373
40 1 12.5106 13.4827 5.50128 0.00112493 -0.00781414 0.00338846
41 2 3.96923 4.74124 4.40316 -0.0213281 0.013413 0.0112356
42 2 11.5667 13.3025 5.16689 0.00452739 -0.000705789 0.00272244
43 1 4.1943 5.54674 3.94918 -0.00214933 -0.00830484 0.00136505
44 2 12.3779 7.99985 4.88437 -0.0289665 0.023174 -0.00604941
45 2 7.245 12.8843 4.2131 0.0138359 0.0135774 0.00588086
46 1 9.88431 13.086 7.93697 -0.00862424 -0.000760132 0.00311782
47 2 8.58984 12.7611 7.03903 -0.0164449 0.00416928 0.00469382
48 2 10.3309 12.2037 7.77562 0.00728492 0.00449384 -0.00445629
49 1 10.3087 6.5832 8.65246 0.00137025 -0.000264048 -0.00990436
50 2 9.50385 6.07087 8.56454 0.0177253 -0.0126866 -0.0196438
51 2 9.9959 7.23072 9.37313 0.00756479 0.0273637 0.0172533
52 1 9.25453 10.2328 4.44221 0.00416508 0.0053949 0.000510807
53 2 8.94965 9.78761 5.26528 0.0275317 0.0241179 -0.00331823
54 2 9.63766 11.1309 4.71244 0.00412337 0.00542377 -0.00827099
55 1 5.1116 10.7993 3.56303 -0.00135047 0.00603148 -0.00369378
56 2 5.66521 9.96899 3.26065 0.0118775 0.0210156 0.000236234
57 2 4.31697 10.6879 3.03904 0.0113458 0.0151003 0.0411285
58 1 5.94732 10.7754 9.5623 -0.00512097 0.00203205 0.000377116
59 2 5.26295 12.9631 7.6877 -0.0192165 0.0130163 0.0276288
60 2 7.4092 11.6634 9.67664 0.00829113 0.00620076 0.00452567
61 1 7.93113 5.29713 6.09984 -0.00199052 -0.000454913 -0.00283617
62 2 7.85958 5.34362 7.04092 0.0218267 -0.0274272 -0.0054141
63 2 7.15384 5.7763 5.82368 0.00646553 -0.00923047 -0.00921575
64 1 5.68045 12.2114 7.40436 0.00124406 0.00226005 -0.00415899
65 2 4.60462 11.4749 6.52336 0.0213214 -0.0090213 0.000340057
66 2 3.64438 4.57699 6.84309 -0.00622868 -0.0145199 -0.0191508
67 1 11.5161 10.6151 7.82455 -0.000491163 0.00609382 -0.000960917
68 2 12.2023 10.5472 7.10921 0.00159839 0.00103271 -0.00272033
69 2 11.7778 9.94473 8.52218 0.00856876 -0.00901524 0.00199431
70 1 10.1738 12.8246 4.22505 -0.00662618 -0.00153139 -0.00278324
71 2 9.9382 13.0772 3.31712 -0.0439004 -0.0315476 -0.000303448
72 2 9.41454 13.1736 4.6824 -0.00728048 -0.0207335 0.0184793
73 1 9.32989 8.83883 7.02889 0.000617344 -0.00386208 -0.00157068
74 2 9.6495 7.93133 7.26412 0.0094706 -0.000290995 -0.0156434
75 2 10.0955 9.38248 7.29454 0.00491987 -0.0322364 -0.0121714
76 1 12.37 5.00128 10.0412 0.00505176 0.00449745 -0.00244289
77 2 11.7703 5.62377 9.48445 0.0250159 -0.00364053 -0.00449541
78 2 4.06655 5.83616 10.6742 -0.00770294 -0.0120123 0.0109717
79 1 12.4763 8.77825 9.68777 0.00575315 0.00410312 0.00514547
80 2 12.6225 9.12998 10.6781 0.0422501 0.022831 0.0045613
81 2 5.76842 11.198 8.65497 -0.0343489 -0.00287932 -0.0142567
82 1 7.40631 5.53145 11.4464 0.001914 0.000329908 0.00649456
83 2 6.97459 4.80745 11.9256 -0.0047783 0.0119435 0.0155227
84 2 6.78571 6.33708 11.6458 -0.00907776 -0.0176723 0.00631376
85 1 10.1543 13.6912 11.2775 -0.00964901 -0.00746027 0.00106616
86 2 9.4021 4.47289 11.2461 0.012789 0.00173637 -0.0226389
87 2 11.7203 4.4065 10.5628 0.017588 0.0038663 -0.00452074
88 1 8.0028 12.5857 6.17624 0.00267398 -0.00051206 0.0047008
89 2 6.93646 12.5127 6.81414 -0.0210229 0.0227628 -0.000599083
90 2 7.91751 13.5363 5.84739 0.0079922 -0.010583 -0.00214567
91 1 5.46328 6.76997 6.09855 0.00904692 -0.00487596 0.00994199
92 2 4.17435 7.9411 6.32677 0.00328096 -0.0038055 -0.00129089
93 2 5.08485 6.31995 6.862 -0.00774956 0.00506222 0.0112074
94 1 4.12777 4.59382 7.68768 -0.00077298 -0.00425406 -0.00267771
95 2 3.49296 4.70161 8.40355 0.00565605 -0.0221752 0.0139924
96 2 4.85577 6.32907 5.4229 -0.00294361 0.00981315 0.0033903
ITEM: TIMESTEP
3
ITEM: NUMBER OF ATOMS
96
ITEM: BOX BOUNDS pp pp pp
2.9236100000000000e+00 1.2773600000000000e+01
4.0306300000000004e+00 1.3880599999999999e+01
2.1372399999999998e+00 1.1987200000000000e+01
ITEM: ATOMS id type x y z vx vy vz
1 1 7.05714 13.0281 3.30072 0.0048511 -0.0042765 -0.000838842
2 2 6.50185 12.1985 3.03832 -0.0170085 -0.00466243 0.00148445
3 2 9.72456 12.8575 11.0246 0.0239502 0.0202603 0.0161595
4 1 12.2864 9.78318 2.33049 -0.00185554 6.65116e-05 -0.00103079
5 2 11.3522 10.1202 2.15147 -0.0150362 -0.0125866 0.0017585
6 2 12.2353 9.04137 2.96917 0.00770638 -0.00376144 -0.00780313
7 1 12.1058 7.58869 4.00987 -0.000895684 0.00355481 0.00247748
8 2 11.0912 7.40515 4.11543 -0.0191022 -0.000510338 -0.0288177
9 2 8.17136 8.42051 8.69249 -0.0138287 0.0164427 -0.00525329
10 1 7.47904 8.27711 9.38735 0.00307309 0.00141634 -0.000899194
11 2 6.94681 7.51376 9.02573 -0.0184289 0.00481828 0.0095355
12 2 6.35732 9.9095 9.37587 0.00905368 0.0316549 -0.0027067
13 1 6.21475 8.69192 11.8673 -0.0151349 -0.00247127 -0.0065474
14 2 6.32695 9.33218 11.1613 -0.0227733 0.0106332 0.00656311
15 2 5.90255 7.91739 11.3704 0.00936634 0.00167018 0.00353507
16 1 9.59658 7.74817 11.1422 -0.000260547 0.000325279 -0.0040071
17 2 9.58207 7.39174 2.1904 0.0236527 -0.0002553 -0.00261954
18 2 8.64387 7.71224 10.7517 -0.0224169 -0.0144093 0.0150419
19 1 4.81504 6.27149 11.1128 5.88788e-05 -0.00580785 -0.00204481
20 2 4.77204 5.8892 2.21432 0.00584625 0.00868957 0.00885527
21 2 11.8469 8.06589 9.75027 0.00645527 0.0239244 0.0173883
22 1 9.61859 10.547 11.6521 -0.000459806 -0.00425334 0.00509474
23 2 9.27283 10.4927 2.76502 -0.0131447 0.0170766 -0.0242078
24 2 9.61931 9.57962 11.4408 0.0338298 -0.00895675 0.000464031
25 1 3.28491 8.4422 6.34642 0.00578826 0.00633358 0.00537161
26 2 3.59699 9.43039 6.24951 0.0158051 -0.0182953 0.0244013
27 2 3.41733 6.14164 3.8904 -0.0208928 0.00118899 -0.0138119
28 1 9.35027 7.21385 4.11344 0.000743054 0.00750395 -0.00383129
29 2 9.30546 6.8733 5.04539 0.00617653 0.00668617 -0.0307419
30 2 8.96249 8.07917 4.20486 0.0262882 -0.0105868 0.00266495
31 1 3.79365 11.0013 5.91238 -0.00434859 0.00172557 -0.000634953
32 2 2.99232 12.5699 5.52289 0.00546748 -0.0350813 0.000208798
33 2 4.29537 10.821 5.04233 -0.00906911 -0.0106607 -0.000779321
34 1 7.60996 5.10813 8.85206 0.00231078 0.00339595 -0.00589351
35 2 7.88044 4.16175 8.85967 -0.00447627 0.00078072 -0.0100205
36 2 7.3622 5.3297 9.78786 0.0062141 0.0174111 0.00803556
37 1 8.2486 12.1342 9.96804 0.00611262 0.000229535 0.00466984
38 2 9.53048 12.875 8.83132 0.00225046 -0.0180793 0.027096
39 2 8.68675 11.474 10.5953 -0.00274702 -0.00316538 -0.0110711
40 1 12.5111 13.4788 5.50292 0.000747773 -0.00779734 0.00317268
41 2 3.95734 4.74742 4.40917 -0.0261712 0.0110373 0.0129256
42 2 11.5697 13.3034 5.16853 0.00740373 0.00420782 0.00379985
43 1 4.19332 5.54261 3.94981 -0.0018173 -0.00815299 0.00117579
44 2 12.3641 8.01153 4.88177 -0.0264739 0.0234494 -0.00436793
45 2 7.25183 12.8908 4.21604 0.0133411 0.0125648 0.00555798
46 1 9.88001 13.0855 7.93852 -0.00856362 -0.00127552 0.00314176
47 2 8.58359 12.7631 7.0423 -0.00858903 0.00358981 0.00853834
48 2 10.3349 12.2068 7.77277 0.00874361 0.00817684 -0.00695051
49 1 10.3093 6.58317 8.6476 0.00115324 0.000190202 -0.00947182
50 2 9.51276 6.06374 8.55432 0.0177036 -0.015614 -0.0209426
51 2 10.0008 7.24333 9.38065 0.0121485 0.0221423 0.0120354
52 1 9.25662 10.2355 4.44252 0.00419458 0.0054864 0.000704314
53 2 8.96402 9.80034 5.26352 0.0295899 0.0263302 -0.00316447
54 2 9.63896 11.1323 4.70808 0.00124187 0.000600223 -0.00918641
55 1 5.11102 10.8022 3.56113 -0.000916543 0.00561445 -0.00384219
56 2 5.66996 9.98116 3.26145 0.00711746 0.0272396 0.00275883
57 2 4.32223 10.6954 3.05941 0.00856899 0.0148258 0.0394312
58 1 5.94482 10.7764 9.56253 -0.00492348 0.00184034 0.000499869
59 2 5.2525 12.9716 7.70194 -0.0219915 0.0202315 0.0288009
60 2 7.41295 11.6667 9.67897 0.00652793 0.00682062 0.00466056
61 1 7.9302 5.29695 6.09833 -0.00171957 -0.000314997 -0.00322229
62 2 7.87085 5.32963 7.04029 0.0229902 -0.028337 0.00286299
63 2 7.15591 5.77222 5.81814 0.00156207 -0.00692714 -0.0126339
64 1 5.6812 12.2124 7.40213 0.00170319 0.00171592 -0.00476146
65 2 4.61454 11.4702 6.52362 0.017991 -0.00986966 0.000436306
66 2 3.64073 4.56931 6.83378 -0.00814689 -0.0162212 -0.0173668
67 1 11.5159 10.6181 7.82405 -0.000424078 0.00592335 -0.001002
68 2 12.2024 10.5478 7.10886 -0.00128757 0.00115509 0.00133813
69 2 11.7824 9.94061 8.5228 0.00962592 -0.00710689 0.000187065
70 1 10.1705 12.8238 4.22364 -0.00670397 -0.00154114 -0.00284394
71 2 9.91687 13.0613 3.31649 -0.0414605 -0.0318579 -0.00210262
72 2 9.41069 13.1634 4.6923 -0.00791765 -0.0201277 0.0209283
73 1 9.33024 8.83683 7.02813 0.000777591 -0.00412901 -0.00146406
74 2 9.65383 7.93193 7.25615 0.00771684 0.00230183 -0.0162055
75 2 10.0976 9.36665 7.28827 0.00411407 -0.0305039 -0.012773
76 1 12.3724 5.00354 10.0399 0.004583 0.00456094 -0.0025632
77 2 11.7835 5.62057 9.48348 0.0274155 -0.00873678 0.000289813
78 2 4.0626 5.8303 10.6794 -0.00793759 -0.0113766 0.00972432
79 1 12.4792 8.78035 9.69044 0.00583187 0.00432989 0.00556098
80 2 12.643 9.14074 10.6787 0.0391896 0.0200229 -0.00215145
81 2 5.751 11.197 8.64737 -0.035138 -0.00140816 -0.0156344
82 1 7.40719 5.53174 11.4498 0.00160849 0.000812366 0.00684565
83 2 6.97253 4.81334 11.9333 -0.00338359 0.0112933 0.0154985
84 2 6.78245 6.32611 11.6482 -0.00410027 -0.0256508 0.00340032
85 1 10.1494 13.6875 11.278 -0.00980812 -0.0073978 0.00106664
86 2 9.40901 4.47347 11.2349 0.0143322 0.000743684 -0.0224033
87 2 11.7299 4.40972 10.5594 0.0205891 0.00881949 -0.00863334
88 1 8.00409 12.5854 6.17865 0.00250203 -0.000955149 0.00494859
89 2 6.92266 12.5231 6.81458 -0.0341469 0.0188823 0.00245489
90 2 7.92108 13.533 5.84507 0.00633458 -0.00287556 -0.00717336
91 1 5.46768 6.76749 6.10351 0.00852712 -0.00505523 0.00988747
92 2 4.17485 7.93932 6.32605 -0.00128401 -0.00339204 -0.00154613
93 2 5.08174 6.32249 6.86881 -0.00466944 0.00512609 0.0157958
94 1 4.12744 4.59172 7.68632 -0.000564593 -0.00413563 -0.00276639
95 2 3.49536 4.69043 8.41072 0.0040855 -0.022595 0.0142864
96 2 4.85551 6.3348 5.42382 0.00201254 0.013104 0.000540948
ITEM: TIMESTEP
4
ITEM: NUMBER OF ATOMS
96
ITEM: BOX BOUNDS pp pp pp
2.9236100000000000e+00 1.2773600000000000e+01
4.0306300000000004e+00 1.3880599999999999e+01
2.1372399999999998e+00 1.1987200000000000e+01
ITEM: ATOMS id type x y z vx vy vz
1 1 7.05947 13.0259 3.30022 0.00445447 -0.00474644 -0.00113451
2 2 6.4947 12.1984 3.0402 -0.011415 0.00436215 0.0061841
3 2 9.73673 12.8676 11.0327 0.0237685 0.0186691 0.0157434
4 1 12.2854 9.78328 2.32992 -0.00188108 0.00029797 -0.00126061
5 2 11.3455 10.1135 2.15277 -0.0117037 -0.0141872 0.00342814
6 2 12.2387 9.03888 2.96549 0.00613961 -0.00619147 -0.00692044
7 1 12.1052 7.59046 4.01112 -0.00138633 0.00352392 0.00253126
8 2 11.0828 7.40506 4.10044 -0.013746 0.000301664 -0.0309354
9 2 8.16344 8.42851 8.6904 -0.0176381 0.015436 -0.00335908
10 1 7.48058 8.27777 9.38682 0.00304504 0.0012381 -0.00118804
11 2 6.93876 7.51727 9.03098 -0.0136058 0.00926667 0.0113599
12 2 6.36188 9.92527 9.37456 0.00941132 0.0307901 -0.00263296
13 1 6.20718 8.69068 11.864 -0.0151276 -0.00246181 -0.00650532
14 2 6.31564 9.33756 11.1646 -0.0224912 0.0108403 0.00623458
15 2 5.90702 7.91831 11.3725 0.00830999 0.0015333 0.00453171
16 1 9.59638 7.74837 11.1401 -0.00055338 0.000488248 -0.00432197
17 2 9.59322 7.39149 2.18888 0.0209058 -0.000724714 -0.00357654
18 2 8.63416 7.70504 10.7603 -0.0160345 -0.0143249 0.0196471
19 1 4.81507 6.26852 11.1119 2.65636e-05 -0.00606737 -0.00151216
20 2 4.77506 5.89453 2.21704 0.00619677 0.0125719 0.00196151
21 2 11.8501 8.07785 9.75919 0.00572394 0.0234886 0.0184482
22 1 9.61836 10.5448 11.6547 -0.000411176 -0.00458973 0.00533919
23 2 9.26642 10.5023 2.75247 -0.0127125 0.0211437 -0.0253878
24 2 9.63629 9.5749 11.4399 0.0339311 -0.00981153 -0.00385882
25 1 3.28793 8.44536 6.34908 0.00627375 0.00630753 0.00528365
26 2 3.60415 9.42043 6.26189 0.0129122 -0.0207959 0.0249932
27 2 3.40646 6.14203 3.88378 -0.0218342 1.29383e-05 -0.0126439
28 1 9.35068 7.21756 4.11159 0.00095019 0.00727711 -0.00361504
29 2 9.30819 6.87687 5.02885 0.00467122 0.00719291 -0.0343278
30 2 8.97568 8.0743 4.20632 0.0259657 -0.00776732 0.003298
31 1 3.79165 11.0023 5.91209 -0.00362169 0.00204212 -0.000511151
32 2 2.99623 12.5519 5.52349 0.00975568 -0.0360945 0.00214525
33 2 4.2904 10.8157 5.04204 -0.0109214 -0.0102947 -0.000120886
34 1 7.61114 5.10979 8.84906 0.00239919 0.00325647 -0.00606992
35 2 7.87809 4.16279 8.85502 -0.00498129 0.00344792 -0.00845139
36 2 7.36516 5.33831 9.79222 0.00582414 0.0167527 0.00883961
37 1 8.25165 12.1343 9.97037 0.00606555 0.000102596 0.0046095
38 2 9.53106 12.8667 8.84526 0.000303559 -0.0148348 0.0278723
39 2 8.68524 11.4727 10.5895 -0.00298653 -0.00221076 -0.0117599
40 1 12.5114 13.4749 5.50446 0.000444326 -0.00788089 0.00297526
41 2 3.94306 4.75228 4.41608 -0.0308065 0.00832316 0.0147074
42 2 11.5741 13.3067 5.17069 0.00999106 0.00888293 0.00476106
43 1 4.19248 5.53859 3.95035 -0.00158688 -0.00792094 0.000986369
44 2 12.3514 8.0233 4.88 -0.0241978 0.023506 -0.00279584
45 2 7.25834 12.8968 4.21866 0.0125429 0.0113653 0.00462478
46 1 9.87574 13.0847 7.94011 -0.00851468 -0.00181355 0.00326877
47 2 8.58125 12.7647 7.04757 -0.00109537 0.00292766 0.0124626
48 2 10.3396 12.2118 7.76867 0.0099959 0.0119878 -0.00938777
49 1 10.3099 6.58339 8.64299 0.00095855 0.000718044 -0.00897358
50 2 9.52156 6.05525 8.54359 0.0173655 -0.018032 -0.0216869
51 2 10.008 7.25286 9.38517 0.0165531 0.0152473 0.00547322
52 1 9.25872 10.2383 4.44292 0.00423813 0.00558795 0.000830254
53 2 8.97924 9.81394 5.26212 0.0309586 0.0275316 -0.00184859
54 2 9.6389 11.1315 4.70326 -0.00122451 -0.003434 -0.0101026
55 1 5.11069 10.8049 3.55919 -0.000360506 0.00530676 -0.00385198
56 2 5.67233 9.99623 3.26341 0.00253309 0.0324394 0.00475068
57 2 4.32554 10.7027 3.07847 0.00366919 0.013868 0.0359845
58 1 5.9424 10.7773 9.5628 -0.00477415 0.00175802 0.000562458
59 2 5.24096 12.9833 7.7165 -0.0235003 0.0252381 0.0288618
60 2 7.41573 11.6702 9.6813 0.00442592 0.00747176 0.00454456
61 1 7.92941 5.29682 6.09662 -0.00140163 -0.000217551 -0.00361651
62 2 7.88257 5.31528 7.04378 0.0235588 -0.0288419 0.0106185
63 2 7.1554 5.76938 5.81105 -0.0035965 -0.00444841 -0.0152298
64 1 5.68216 12.2131 7.3996 0.00206178 0.0013209 -0.00529062
65 2 4.62261 11.4651 6.52379 0.0139112 -0.0107696 -3.80032e-05
66 2 3.63623 4.56077 6.82572 -0.00962389 -0.0179351 -0.0142638
67 1 11.5157 10.621 7.82355 -0.000321406 0.00570756 -0.000994995
68 2 12.201 10.5484 7.11055 -0.00415857 0.00141913 0.0051985
69 2 11.7874 9.93762 8.52236 0.010265 -0.00452307 -0.00211715
70 1 10.1671 12.823 4.22221 -0.00680285 -0.00153791 -0.00289345
71 2 9.89674 13.0453 3.31501 -0.0390755 -0.0320982 -0.00363335
72 2 9.40663 13.1535 4.70333 -0.00805553 -0.0196496 0.0229063
73 1 9.33067 8.8347 7.02742 0.000893322 -0.00441585 -0.00137731
74 2 9.65721 7.93363 7.24791 0.00574798 0.00404531 -0.0166848
75 2 10.0996 9.35198 7.28177 0.00409352 -0.0276586 -0.0130962
76 1 12.3746 5.00584 10.0386 0.0042444 0.00459504 -0.00266662
77 2 11.7977 5.61503 9.48474 0.028639 -0.0128414 0.00425997
78 2 4.05861 5.82479 10.684 -0.00786264 -0.0105746 0.00863758
79 1 12.4822 8.78258 9.69333 0.00597553 0.00462811 0.00595867
80 2 12.6617 9.15001 10.676 0.0356825 0.0169728 -0.00884583