ITEM: TIMESTEP
0
ITEM: NUMBER OF ATOMS
1151
ITEM: BOX BOUNDS pp pp pp
1.6762900000000000e-01 2.2849499999999999e+01
-2.0329000000000000e-01 2.2478600000000000e+01
8.2643499999999995e-02 2.2764500000000002e+01
ITEM: ATOMS id type x y z vx vy vz 
28 4 3.1498 5.31663 0.463184 0.0238027 0.00103289 -0.0331104 
170 4 3.15385 -0.021666 2.38562 0.00750045 -0.0281381 0.00685965 
210 3 3.74802 4.57675 1.81365 0.0081218 -0.000121812 -7.4672e-05 
211 4 4.68225 4.73948 1.94396 -0.0138469 0.0152025 -0.00734626 
212 4 3.51726 3.94474 2.49449 -0.00914838 -0.0352442 0.00190054 
416 4 2.32879 5.28687 2.73095 0.0221289 -0.00657235 -0.0195541 
628 4 0.967494 5.45728 5.35666 -0.000704682 -0.0182607 -0.0361592 
680 4 0.332988 0.586528 5.30805 0.0301967 0.00056187 0.00733032 
714 3 5.65514 1.14714 3.86419 0.000157463 0.0029408 0.00218847 
716 4 4.80431 0.909206 3.49581 -0.00489174 -0.0117338 -0.0310345 
864 3 4.50679 4.02271 5.71112 -0.00215138 0.00612939 0.00403904 
865 4 3.92694 3.34456 5.36455 -0.0198235 -0.0097682 0.00130951 
872 4 3.37602 0.461386 5.09707 0.0132109 0.0149442 -0.0202427 
879 3 2.39445 2.77706 3.31282 -0.00653644 -0.00309655 -0.00582838 
880 4 1.71879 3.36942 3.64273 -0.0202705 0.00905413 -0.0182056 
881 4 1.94016 2.22611 2.67539 -0.0276001 -0.0145633 0.0145208 
1137 3 3.39064 0.667605 0.560143 -0.0027232 -0.000509665 -0.00387045 
1138 4 2.79238 1.40533 0.441526 0.00582502 -0.000774517 0.00825079 
98 4 7.0931 -0.120658 0.99838 -0.0144744 -0.00934659 -0.0139552 
136 4 11.3782 3.78167 0.403437 -0.00852985 0.0151579 -0.0149647 
357 3 6.56682 4.11966 3.03115 0.00521212 -0.00223234 0.00152157 
358 4 7.50035 3.94956 2.90539 0.00875288 -0.0119112 0.0181014 
359 4 6.20343 3.27624 3.30101 -0.0077538 0.0111879 0.00689265 
594 3 9.21097 3.40387 3.42393 -0.00397661 -0.0022127 -0.000337092 
595 4 9.30689 3.95991 2.65072 0.0101995 0.00313707 0.00516826 
596 4 9.89501 3.70462 4.02215 -0.000953547 0.000620208 0.00202386 
645 3 9.27702 0.698161 4.56423 0.000611511 -0.00294846 0.00119071 
646 4 9.3695 0.0852566 3.83483 0.0212696 -0.00249781 0.00645273 
647 4 8.98127 1.51254 4.15736 0.0289591 0.00523834 -0.00535022 
715 4 5.96945 0.344439 4.28025 0.00247912 0.0139074 0.00391541 
850 4 6.40407 5.4272 4.22109 0.000865056 0.0203889 -0.0215136 
852 3 9.75193 4.39766 0.454479 0.00451133 0.00704001 0.00078188 
853 4 8.9678 3.85351 0.381829 0.00134638 0.0102241 -0.0282069 
854 4 9.45815 5.27561 0.211291 -0.000183968 0.0114742 0.00568372 
933 3 9.9826 0.754217 0.821162 -0.0035382 -0.00478374 -0.00177135 
934 4 10.2276 1.62704 1.12842 0.00112228 0.00902703 0.0076678 
935 4 9.28741 0.911089 0.182158 -0.00440154 0.0103479 -0.00566176 
1005 3 11.1153 4.01988 5.54257 0.013171 -0.00841664 0.00244056 
99 3 12.7732 3.20274 3.2592 -0.00475866 0.00401844 -0.00141953 
100 4 12.1724 3.48013 3.95082 0.0159344 -0.0100395 -0.00135373 
101 4 13.6254 3.54375 3.5306 -0.00110909 -0.00950735 -0.00450267 
135 3 12.1688 3.2459 0.339175 -0.0051341 -0.000423359 -0.00458402 
137 4 12.5165 3.22337 1.23069 -0.00391226 -0.0320786 -0.0230673 
240 3 14.8876 4.64756 4.08015 -0.00424841 0.00169055 -0.00193316 
241 4 15.4116 4.25829 4.78027 -0.0146149 0.0123603 0.000631178 
242 4 15.4933 5.23123 3.62329 -0.00549958 -0.0126441 0.0031954 
300 3 15.8255 1.11452 5.11245 0.00803326 0.00229048 -0.00137188 
301 4 15.3214 0.454622 5.58859 -0.00994195 -0.00251404 -0.0063176 
302 4 16.5671 0.632339 4.74684 0.0161435 -0.0199814 0.013993 
820 4 14.9411 0.992512 0.784093 -0.0514089 0.0217668 -0.0232351 
915 3 14.7696 1.52942 2.46816 -0.00219587 -0.00397463 -0.000256479 
916 4 15.0258 1.50791 3.39018 -0.0199341 -0.00139544 -0.0265665 
917 4 13.9703 2.05584 2.45341 -0.00278794 -0.0102144 -0.00981933 
117 3 18.7967 2.2877 2.37198 0.00593914 -0.00140457 0.00182803 
118 4 19.1212 1.42185 2.1245 0.000865717 0.00544578 0.017582 
119 4 17.8551 2.248 2.20449 -0.00969322 0.00789598 0.0286041 
259 4 21.2918 4.16919 0.176593 0.0193648 0.02609 0.00939855 
480 3 22.5629 1.13919 2.39088 0.00690533 -0.00242543 -0.000965854 
481 4 21.692 0.891488 2.70137 0.0147213 -0.0108456 0.0204552 
482 4 22.7621 0.504024 1.70304 -0.00499518 0.00132304 -0.0118938 
519 3 19.8568 4.2905 3.82642 -0.00590185 0.00465752 -0.00551698 
520 4 19.0405 4.78853 3.86828 -0.0348016 -0.0194849 0.0125505 
521 4 19.603 3.44405 3.45856 0.00692849 0.0117978 -0.00733998 
618 3 19.3008 4.58492 0.614951 -0.00716806 -0.00282022 5.59187e-05 
619 4 18.5163 4.14383 0.940988 -0.01671 0.00706964 -0.0123631 
937 4 20.4304 5.00369 5.38599 -0.0342061 -0.0215986 8.29267e-06 
987 3 22.4716 3.05986 4.27313 -0.000883158 -0.00608627 -0.00493847 
988 4 21.5395 3.27749 4.27691 -0.00934092 -0.00262664 -0.000121329 
989 4 22.5994 2.56566 3.4634 -0.0125143 -0.0241543 -0.0115413 
56 4 0.213307 6.11854 2.94079 0.0110322 0.0215335 0.00795285 
315 3 1.96483 10.1825 4.88224 0.000708265 -0.0113997 -0.00472243 
316 4 1.43514 9.4098 5.07853 0.00333469 0.0221193 0.00757066 
317 4 1.56089 10.558 4.09986 -0.00966817 -0.0223538 0.0507784 
414 3 1.96384 5.77523 3.46888 8.93021e-05 0.00192008 0.00483874 
415 4 2.72781 6.13275 3.9214 0.00857476 -0.00826284 -0.0293238 
553 4 5.59067 8.97522 2.42768 0.00442212 -0.0153258 0.0168082 
622 4 0.263894 8.67362 0.898526 0.00822047 -0.0164816 0.000220722 
719 4 0.886606 10.334 2.09243 -0.00786439 0.00777666 0.00682592 
765 3 4.14307 10.1604 2.54958 -0.000536405 -0.00287779 0.00758488 
766 4 4.03754 10.3345 1.61429 0.00562609 0.0117359 0.00189579 
767 4 3.63207 10.8456 2.98041 0.00417723 0.0118799 -0.0160226 
789 3 3.90187 7.25139 4.71661 0.003085 -0.00170082 -0.00175377 
790 4 4.7389 6.78761 4.69361 -0.000314057 0.0106483 0.0229513 
791 4 4.13545 8.17353 4.61014 0.005325 -0.0222563 0.0155603 
904 4 0.392657 8.13375 4.76515 0.00640255 0.01431 -0.0179666 
339 3 11.2641 8.35442 0.470219 0.000426975 -0.00703614 -0.0104289 
341 4 10.9093 8.15645 1.33692 0.0135765 -0.00378674 -0.0201622 
420 3 7.2708 10.3434 4.60235 0.00627707 -0.00135122 0.00249616 
421 4 6.50597 10.2613 5.17203 0.0142667 0.0035006 0.00711434 
422 4 7.2072 9.59714 4.00626 -0.011952 0.0016126 -0.0138035 
552 3 6.44802 8.5496 2.42259 0.00342935 -0.00406316 -0.00482859 
554 4 6.6333 8.39416 1.49644 0.0131059 0.00904838 0.00301446 
774 3 11.2103 7.26285 5.58731 -0.001118 0.00585371 -0.00510047 
783 3 9.70442 11.0917 3.88919 0.00405362 0.00609293 0.000746432 
785 4 8.85394 10.8405 4.24953 0.00194281 0.00311111 -0.0204485 
822 3 10.2564 8.22814 3.28128 0.000464722 -0.00296866 -0.00156468 
823 4 10.7766 7.99205 4.04928 -0.0186467 0.0289146 -0.0128788 
824 4 9.7113 8.95781 3.57573 -0.0144038 -0.0195065 0.00901157 
849 3 6.43486 6.35225 4.46515 -0.000507952 0.000701294 0.00044686 
851 4 6.93786 6.76851 3.76518 0.0194315 -0.00183255 0.0100411 
954 3 11.0086 11.0839 1.50229 0.000586015 -0.00259507 0.000913728 
956 4 10.3181 11.0053 0.844036 -0.00193582 -0.00755463 -0.0200563 
21 3 13.6755 10.5495 2.98197 -0.00351964 0.00462419 0.003948 
22 4 14.1624 9.72652 3.02432 -0.00815185 -0.0551771 0.0174611 
23 4 12.8068 10.2985 2.66813 0.0243354 0.00343809 0.0122131 
340 4 11.5757 9.25687 0.53887 -0.0194355 0.025458 -0.00924479 
344 4 13.7109 5.49325 5.4635 0.0340278 -0.0196356 -0.000338555 
380 4 17.1547 6.25791 5.08482 -0.0154875 0.0331403 0.00568422 
502 4 14.697 10.9888 4.93755 -0.0117517 0.00902197 0.0202106 
775 4 12.1095 6.97053 5.43776 -0.00135945 0.0127203 0.00254446 
1011 3 16.4019 9.12 0.506032 -0.00381264 0.000136175 0.0023817 
1013 4 17.1356 9.72888 0.59021 0.00390976 -0.00859902 0.00541458 
1086 3 16.301 6.41412 2.20013 0.00036692 0.00192511 0.000354356 
1087 4 16.5209 7.30962 1.94336 0.00954633 0.00819451 0.00440274 
1088 4 15.9144 6.02729 1.41455 0.00435517 0.00674634 0.00283276 
1095 3 15.7647 8.85049 4.93975 -0.00552972 0.00194107 -0.00523237 
1096 4 16.6188 9.2823 4.96077 -0.00855312 0.0326782 -0.019336 
1097 4 15.8534 8.11377 5.5444 -0.0199101 -0.00769183 0.0155387 
54 3 21.9716 6.35048 2.84342 8.62379e-05 0.00085273 0.00521746 
55 4 21.5294 5.51555 2.68991 0.00114536 -0.0279317 -0.00521514 
103 4 20.7049 10.7634 3.93938 0.0110631 -0.0226191 -0.00843878 
104 4 21.3641 11.0794 2.61368 0.0229624 0.0272276 0.039856 
129 3 19.3835 7.65792 2.92361 0.000676449 0.00318305 0.00379537 
130 4 20.1172 7.09653 2.673 -0.0143838 0.0102454 -0.0142518 
131 4 19.087 8.04697 2.10082 -0.0129416 0.000119167 0.0070244 
201 3 18.185 10.3514 5.69658 0.00732507 0.000251345 0.000985046 
202 4 19.0938 10.6517 5.7066 0.00466506 -0.00161427 0.027336 
378 3 17.5516 5.58839 4.52769 0.00388891 0.00363991 0.00476769 
379 4 17.2584 5.80742 3.64323 -0.0133541 -0.0267455 0.00142818 
620 4 19.1801 5.50208 0.86091 0.0220425 0.00132168 0.020336 
621 3 22.6887 8.89466 1.79368 0.0038372 0.00309137 -0.00381271 
623 4 21.8814 8.40168 1.94022 -0.00638768 -0.00176352 -0.00897966 
810 3 19.5893 8.28469 0.121553 -0.00828769 0.00398312 -0.00441942 
903 3 22.8425 8.42226 5.64785 -0.00583482 0.00715774 0.000743947 
969 3 19.4224 7.72087 5.74512 -0.00063744 0.00216281 0.00135615 
970 4 19.363 7.60519 4.7968 -0.0403952 -0.015881 0.0187692 
153 3 5.76803 13.4059 3.62101 -0.00482254 0.00190435 0.00367912 
155 4 5.40085 13.1593 4.46991 0.00158597 -0.00729229 0.00897751 
165 3 0.4918 12.8992 0.335879 0.00449821 0.0025513 -0.00506219 
219 3 0.178202 14.6658 2.78763 -0.0044661 0.00579822 0.00413194 
220 4 0.614476 15.4417 2.4356 -0.00457593 -0.00818569 -0.0218471 
221 4 0.26652 14.0074 2.09849 -0.00595243 -0.0225443 -0.0116247 
540 3 1.36008 14.4728 5.36937 -0.000893957 0.000331651 -0.0031117 
541 4 0.874577 14.443 4.54497 -0.0161769 0.0328765 0.00513053 
542 4 2.16442 14.9464 5.1572 0.0102317 -0.0417952 -0.0252685 
717 3 1.17171 11.1738 2.45237 -0.000686219 -0.0028687 -0.00377408 
718 4 1.02746 11.8003 1.74313 0.00832837 0.0520218 -0.0137557 
760 4 4.16275 15.9213 1.21125 0.00814768 -0.0256428 -0.0207065 
761 4 3.03296 16.7469 1.78905 -0.00279364 0.0160529 -0.00799011 
807 3 3.91851 15.4605 5.67516 -0.00784058 0.0044679 0.000369862 
808 4 4.44355 14.6763 5.51536 0.00795016 -0.0225307 0.0102784 
816 3 4.46112 14.0677 1.17659 -0.0034771 0.0014849 0.00381251 
817 4 5.26336 14.3466 0.735159 -0.0166439 -0.00398517 -0.00282557 
818 4 4.68382 14.0769 2.10748 -0.0031987 0.00117388 -0.00304746 
154 4 6.141 12.5946 3.27612 0.011271 -0.010357 0.0182252 
304 4 10.6389 13.2898 5.50992 0.0246133 -0.0238982 0.0129036 
465 3 9.07887 15.1758 2.18198 0.0033497 -0.00257073 -0.00869667 
466 4 9.63084 14.9169 2.9199 0.00635938 0.0431916 0.0263858 
467 4 8.2497 15.4371 2.58257 0.0141575 -0.000251844 0.0366819 
784 4 9.9948 11.8168 4.44249 0.00513645 -0.0195764 -0.00312196 
831 3 6.74985 15.906 3.74595 0.00442599 -0.00421408 0.000167718 
832 4 6.45058 15.0832 4.13271 -0.0350536 -0.0107925 0.00294426 
833 4 6.03846 16.5236 3.91546 0.0127489 -0.000121451 0.0351154 
862 4 11.2754 16.5477 0.492032 0.00659601 0.00398945 0.00449476 
863 4 10.1969 16.5598 1.55441 0.0184237 0.00827255 -0.000571309 
884 4 7.39817 15.1804 0.109338 -0.00810746 -0.0187745 0.00703528 
955 4 10.54 11.1692 2.33259 -0.00613548 -0.0113118 0.0299236 
171 3 14.5787 14.8584 4.69058 0.00556311 0.00282692 0.000899912 
172 4 14.889 14.0019 4.39665 0.0174833 -0.00104477 -0.0244143 
173 4 14.7374 14.8601 5.63454 0.00627106 -0.0148819 0.0346788 
194 4 12.5946 14.7323 0.476357 0.0203737 -0.00777411 -0.0162297 
282 3 15.403 12.8339 2.703 -0.00345042 -0.000823204 0.0082091 
283 4 15.0045 11.979 2.86638 -0.00556582 0.0179265 -0.0103851 
284 4 16.3127 12.6359 2.48023 -0.00581766 0.0249924 -0.00458155 
312 3 12.7391 13.4702 1.94944 0.000670782 -0.00213971 -5.12737e-05 
313 4 12.3318 12.604 1.94271 -0.0161534 -0.00191223 0.0161519 
314 4 13.6727 13.2974 1.82811 -0.0206126 -0.000648326 0.0200528 
501 3 14.5706 11.5616 5.69402 0.00566334 -0.00367332 0.00340084 
729 3 11.7696 14.3712 4.47885 -0.000575168 -0.00377944 -0.00700733 
730 4 12.5138 14.5711 5.0466 0.0153342 0.000181766 -0.00473439 
731 4 12.1593 14.2128 3.61908 -0.000186553 -0.00517073 0.0149717 
754 4 14.6152 16.6223 4.38916 0.00657797 -0.0078161 0.0029284 
947 4 16.8383 15.7227 3.14522 0.00858755 0.00462752 -0.00111523 
42 3 17.8013 13.0761 4.7688 -0.00311426 -0.00428223 0.000467023 
43 4 17.8513 12.1634 4.4848 -0.00856398 0.00904986 -0.0166763 
44 4 17.636 13.0258 5.71027 -0.0296731 -0.00736469 0.0229308 
102 3 20.6727 11.3767 3.20519 -0.000411508 0.00408249 -0.00504185 
160 4 20.7299 16.5702 1.94042 0.0221933 0.00917422 -0.0110124 
161 4 19.8628 16.2423 3.13732 -0.00423139 -0.0161432 0.0109656 
348 3 20.993 13.9726 4.57068 8.68302e-05 -0.000634523 0.000587455 
349 4 21.683 14.3682 4.03802 0.0268647 -0.0230073 0.0203493 
350 4 20.9852 13.0521 4.30829 -0.0221381 0.0123065 -0.00105013 
423 3 18.2076 12.336 1.67138 0.00446427 0.00698588 -0.000713189 
424 4 18.6367 11.812 0.994979 0.00840249 0.0265595 -0.00458781 
425 4 18.7771 12.2535 2.43626 0.0154567 -0.0114513 0.0117549 
518 4 20.4842 15.1287 0.458018 -0.00258882 0.00341408 -0.0194101 
813 3 18.5654 14.8685 0.671094 0.00453832 -0.00157245 -0.00580632 
814 4 18.3911 14.0268 1.09219 -0.010796 -0.0145808 -0.00265163 
815 4 17.7846 15.3925 0.849839 -0.00666653 -0.00869257 -0.00821651 
945 3 17.7189 15.5734 3.48943 0.00572033 0.00233063 -0.00330712 
946 4 17.7023 14.6709 3.80781 0.0146949 0.0084058 -0.0139682 
66 3 4.72864 17.7223 4.67198 0.000692114 -0.00337394 0.00204265 
67 4 5.57693 17.7436 5.11489 -0.0111066 -0.0118828 0.00282937 
68 4 4.25738 17.0019 5.09053 -0.0108734 0.00868384 0.0038129 
168 3 3.00278 22.4752 3.31255 0.00570839 -0.0058663 -0.00850325 
169 4 2.09663 22.1693 3.35164 0.0117758 0.00672904 0.0193521 
270 3 1.7549 16.9353 2.91563 -0.00283873 0.000277174 -0.00614179 
271 4 1.12576 17.6184 2.68385 0.0196972 0.0215156 0.0107566 
272 4 1.74342 16.9131 3.8725 0.0213446 -0.00893402 0.0192912 
450 3 0.678552 20.8538 3.34245 -0.00429731 0.00705278 -0.00107294 
452 4 0.794981 20.8242 2.39282 0.00992655 -0.00342795 -0.00465572 
648 3 4.80633 19.7323 2.93654 -0.00185154 0.00471568 0.00211671 
649 4 4.81703 18.8054 3.17554 -0.00945291 -0.0066667 0.00339621 
650 4 4.55061 20.1845 3.74049 0.0167376 0.00772829 0.0162839 
678 3 0.617355 22.3801 5.52321 -0.00153026 -0.00381752 -0.00162522 
679 4 0.746766 21.9573 4.67425 0.0122132 0.0245077 -0.0144275 
744 3 4.0862 19.1669 0.150897 -0.00199479 -0.00569864 -0.0007686 
745 4 4.10737 19.7279 0.926183 -0.00503588 -0.0142966 0.012725 
746 4 3.89629 18.293 0.492142 -0.0240211 -0.00630089 0.0107074 
759 3 3.8873 16.8251 1.36452 -0.00467298 0.00160155 -0.00447157 
96 3 6.89226 22.1503 0.157535 0.00233989 0.000684733 -0.00187983 
97 4 7.05436 21.2179 0.301295 0.00200601 -0.00197471 -0.0171808 
120 3 6.79252 21.2997 4.32597 0.000619745 -0.00898098 0.00423192 
121 4 6.48634 20.4904 3.91654 -0.0218422 -0.0105217 0.00204298 
122 4 7.59728 21.5171 3.85552 -0.0354708 -0.0150602 -0.0331567 
144 3 11.4241 19.7002 4.18109 0.00305854 -0.00525382 0.00451151 
145 4 10.8886 20.173 3.544 0.0052566 -0.0243841 -0.00761599 
146 4 10.7906 19.2551 4.7439 -0.0123335 0.0129924 -0.0160922 
204 3 9.29746 18.4298 5.52579 -0.0022636 0.00691482 0.00385936 
291 3 6.89412 19.4592 0.258142 0.00338341 0.00150313 0.00126862 
292 4 6.01473 19.0832 0.297622 0.0130921 -0.00626815 0.00426231 
293 4 7.21946 19.4035 1.15664 0.00753413 -0.0101423 -0.0202594 
399 3 8.92266 21.5713 2.43205 0.00185818 -0.000917919 0.000819891 
400 4 9.27828 22.2339 1.83982 0.0139705 0.0125381 0.0265941 
401 4 9.14973 20.7366 2.02233 0.025704 0.0136382 0.00202511 
861 3 10.7855 17.1359 1.06669 -0.00216513 0.00808278 0.00138287 
972 3 7.96514 18.5653 2.74255 -0.00859993 0.00591619 -0.00227804 
973 4 8.83672 18.7533 3.09075 -0.0141266 0.0101334 0.0250919 
974 4 7.66063 17.8136 3.25088 0.0261694 -0.00924578 0.00734681 
990 3 10.0351 19.9343 0.430792 -0.00566184 -0.0136799 0.00783576 
992 4 9.8723 18.9919 0.471213 0.0152486 -0.0155895 0.0115664 
65 4 16.1571 20.9153 0.190754 0.00120419 -0.014818 -0.00922722 
195 3 14.9885 20.4001 5.6537 0.00210037 0.000409919 0.00969803 
197 4 14.9896 19.4459 5.5782 -0.0114353 0.00570432 -0.000225549 
432 3 16.6668 18.035 1.49203 -0.00287688 -0.00790839 -1.70852e-05 
433 4 16.3165 18.856 1.8376 0.0187013 -0.0161292 0.0263684 
434 4 16.0399 17.7712 0.818513 -0.000465929 0.0306526 0.0292575 
477 3 15.4208 20.392 2.0321 0.000996858 -0.000122366 0.000840257 
478 4 14.5663 20.0343 1.79096 -0.00666772 6.94811e-05 0.00751606 
479 4 15.2281 21.0333 2.71614 0.00499393 0.027441 0.0196538 
753 3 14.6777 17.5646 4.54526 -0.00135951 -0.00357142 -0.0012794 
755 4 14.4579 17.9625 3.7029 -0.029321 -0.00899214 0.021501 
902 4 11.9118 20.756 5.38916 0.0103093 0.0105695 0.00878092 
1002 3 13.3239 18.5404 2.48774 -0.00519107 -0.00358231 0.000629769 
1003 4 12.7027 18.9797 3.06854 -0.0124635 0.00472099 -0.00889059 
1004 4 12.7817 18.1752 1.78851 0.0226364 0.00807875 0.0135526 
159 3 20.5091 16.8736 2.821 -0.00183234 0.00262634 0.00787781 
186 3 22.7884 21.5601 0.663773 0.00200536 0.00134046 -0.00110629 
187 4 22.1091 20.8857 0.658358 0.0236575 0.00981286 0.0086946 
213 3 18.9698 21.8073 0.971719 0.00187066 0.000233115 -0.00530686 
214 4 18.2156 21.4937 0.4727 -0.0253965 0.0115866 0.0102115 
215 4 19.0178 21.2218 1.72746 -0.00898094 -0.00513514 0.0067612 
228 3 22.0478 18.9392 4.34422 0.00448096 -0.000764469 0.00261637 
229 4 22.2984 18.6335 5.21602 0.00206894 0.00667494 0.00721338 
230 4 21.7033 18.1606 3.90679 -0.0185841 0.0207479 0.00565636 
255 3 18.4621 18.1584 4.95685 -0.00427742 -0.00525249 0.00824997 
256 4 18.1951 17.3768 4.47317 -0.0153337 -0.0215264 0.024477 
257 4 17.871 18.1887 5.7091 -0.00916824 -0.0140838 0.00239867 
451 4 22.7932 20.108 3.53812 -0.00797636 0.0161533 -0.0158613 
462 3 19.3356 19.6364 2.71421 0.00464725 -0.00342402 -5.96629e-05 
463 4 19.6045 19.1565 1.93092 0.0166669 0.00882701 -0.022764 
464 4 19.3382 18.9798 3.4107 -0.0246022 0.0140343 -7.91568e-05 
483 3 17.5877 20.7552 4.49831 0.000464572 -0.00367055 0.00207968 
484 4 17.8497 20.1187 5.16349 0.0314077 0.00413806 -0.0108913 
485 4 18.0434 20.4743 3.70474 0.018219 -0.00664843 -0.00020663 
655 4 20.7823 18.7565 0.585038 -0.0133865 0.00926471 -0.0166587 
705 3 19.1705 17.8092 0.708566 -0.00261015 -0.000840415 -0.0025143 
706 4 19.3848 16.9332 0.38766 -0.00770595 0.017272 0.0110871 
707 4 18.2234 17.7896 0.84552 -0.00544378 -0.00643678 -0.0111174 
768 3 20.4899 22.272 3.86104 -0.00539175 -6.85097e-05 -0.00104687 
769 4 20.216 21.5354 3.31459 -0.0284775 0.00854254 0.00300607 
770 4 21.0743 21.8837 4.51204 -0.000936565 0.0394095 0.00543168 
49 4 3.00567 0.442414 9.71591 -0.00986853 0.0139015 0.00201545 
50 4 1.6098 -0.114744 9.53426 -0.00300322 -0.00655877 -0.027988 
111 3 3.58278 1.7537 8.77955 0.00507227 -0.00313524 0.00101505 
112 4 4.52101 1.56494 8.76125 0.00662287 0.0174992 0.0237712 
113 4 3.42291 2.25362 7.97908 0.0184035 -0.0166234 0.0161438 
223 4 0.737222 3.69464 10.8373 0.0224202 -0.00682766 0.00261405 
525 3 2.60922 3.68075 10.8246 0.00269389 -0.00303689 -0.00543399 
526 4 2.88399 4.52574 10.4686 0.0195563 0.0132658 0.018433 
527 4 3.1776 3.04248 10.3935 0.0042033 0.00354143 -0.017763 
866 4 5.16381 3.54225 6.21482 0.00011647 -0.0373648 -0.00744814 
870 3 3.65332 0.929007 5.88489 0.00623066 -0.00554243 0.00178217 
871 4 3.88924 0.237859 6.50367 0.00505328 -0.0117069 0.0238712 
888 3 5.53236 4.59288 8.92379 -0.00140579 0.00048976 -0.00782711 
889 4 5.67434 4.16734 9.76936 -0.00390812 -0.00438233 0.0101725 
890 4 5.80264 3.93993 8.27815 0.0191284 -0.0251896 -0.00101758 
980 4 3.82326 5.10532 7.51858 -0.00178577 -0.00385263 -0.00437965 
1140 3 1.25751 2.46404 6.60791 -0.00174754 -0.00404387 0.00905436 
1141 4 2.05184 1.99896 6.34526 -0.016722 -0.00577526 0.018555 
1142 4 1.1209 3.11394 5.91855 -0.0149194 -0.004241 -0.00622603 
60 3 11.3479 3.09941 10.5089 -0.00205132 0.00635198 -0.00242211 
61 4 11.1127 4.01596 10.3644 -0.00992804 -0.0118539 0.01706 
62 4 11.046 2.91138 11.3976 0.0107485 -0.00786157 0.0272846 
162 3 8.90343 2.51478 9.21237 -0.00129657 -0.00286755 -0.000794716 
163 4 8.60877 2.84 10.063 0.00622995 0.0181258 -0.014735 
164 4 9.83272 2.74155 9.17752 -0.0127014 -0.0291269 0.00461521 
385 4 6.48252 5.25086 11.4208 0.00623814 0.024762 0.0396577 
411 3 6.36125 2.50138 7.21518 -0.00496258 -0.00379365 0.00538794 
412 4 6.67227 1.85893 6.5774 -0.0108842 -0.000445329 0.0213552 
413 4 7.13431 2.71421 7.73797 0.037964 0.00486701 -0.00811176 
644 4 8.71489 0.665188 9.58051 -0.00635749 -0.00218497 0.00350542 
1006 4 11.0678 3.20888 6.04879 -0.0071637 -0.00596897 0.00619844 
1007 4 11.3568 4.68886 6.1832 -0.0157038 -0.00108857 -0.015024 
15 3 15.7049 3.52908 6.27766 0.00362391 -0.00345206 -0.00111921 
16 4 15.7176 2.62934 5.95127 -0.00164372 -0.0160309 0.0289737 
17 4 16.5916 3.67758 6.60641 0.0158171 -0.0124538 0.0171215 
306 3 13.4747 3.46636 7.90436 0.00649992 0.000648636 -0.000755048 
307 4 14.3442 3.72937 7.60276 0.0134457 0.0226305 -0.0199919 
308 4 13.618 3.13618 8.7913 0.0405564 0.00124115 0.00318259 
669 3 14.5897 0.750517 7.78413 -0.00522727 0.00151074 -0.0013626 
670 4 13.8911 1.04196 7.19822 0.0234591 6.12256e-05 -0.0392389 
671 4 14.2302 0.868347 8.6634 -0.000892713 0.0153493 0.0138021 
777 3 15.5868 4.71109 9.57909 0.00113588 0.00325849 -0.00203244 
778 4 16.5035 4.49198 9.41226 0.000120367 -0.0183965 0.0173347 
779 4 15.5856 5.08256 10.4613 0.0194595 -0.0127677 0.0198835 
1043 4 16.9568 3.17849 11.1705 0.0106078 -0.00442685 -0.0176871 
1143 3 13.2675 1.22506 9.92584 0.00148343 0.00476282 0.00125413 
1144 4 12.6307 1.92735 10.0579 0.0293731 0.0155875 -0.00972303 
1145 4 13.9269 1.36825 10.6048 -0.00713597 -0.00199848 -0.0170881 
222 3 22.571 3.31507 11.0671 0.00108341 0.00616933 -0.00164041 
224 4 22.1361 3.17252 10.2264 -0.00847266 0.00964887 -0.0080868 
225 3 21.048 5.41806 8.94104 0.0047875 -0.00177896 -0.00505728 
226 4 21.3283 5.17228 8.05941 -0.00738943 0.0337866 0.00682379 
556 4 22.2497 0.643537 9.36648 -0.00523215 -0.0091237 -0.00393605 
696 3 21.8873 2.39676 8.53416 -0.00363004 0.00213596 0.00101993 
697 4 22.6264 2.43055 7.92687 -0.0167552 -0.010788 -0.0205028 
698 4 21.2478 3.00771 8.16808 0.000202973 -0.00389224 -0.00356119 
876 3 18.2254 4.19789 6.99799 -0.00451385 0.00116412 -0.00232541 
877 4 17.8968 4.63326 6.2114 0.0190738 -0.0015084 0.0248188 
878 4 19.1502 4.44139 7.03852 0.00946566 -0.031357 0.0381267 
936 3 20.8069 4.95897 6.26486 0.000231015 0.000805378 -0.00226462 
938 4 21.6504 5.40478 6.18749 0.00939448 -0.0103755 0.00412052 
1014 3 18.5156 4.48027 10.0567 -0.00441751 0.00527437 -6.35491e-05 
1015 4 18.8794 4.23316 10.9069 -0.00379533 -0.0534675 0.00835608 
1016 4 19.2657 4.8091 9.5612 0.0257236 0.00967602 0.00141489 
1042 4 17.635 1.82508 11.187 0.011691 -0.0354932 -0.00508518 
1056 3 19.1845 0.0859333 6.82482 -0.0037049 -0.00627001 -0.0134659 
1058 4 19.7688 0.373213 6.12319 0.00457615 -0.00987638 0.031075 
150 3 3.38219 7.11379 11.3761 0.00511136 0.00303789 0.00243033 
151 4 4.12191 7.37143 10.826 0.00115509 -0.0231394 0.00500241 
152 4 2.64594 7.03956 10.7689 -0.00999958 -0.0065908 0.0138053 
360 3 2.19717 10.7004 11.2354 0.00320688 0.00160342 0.0046573 
567 3 5.5095 7.86678 9.97424 0.000743497 0.00459274 0.0014159 
569 4 5.65923 7.72712 9.03919 -0.0157468 -0.00463388 0.0083296 
627 3 0.825772 5.72264 6.26536 0.0015175 -0.00021009 0.00299504 
629 4 1.7056 5.87022 6.61228 0.0251022 -0.00735825 0.00125693 
639 3 3.56685 10.2548 9.09654 -0.00454252 0.00612845 0.00606003 
640 4 3.9267 9.37032 9.16321 -0.0228515 -0.0160571 -0.0205153 
641 4 3.14493 10.4066 9.94221 -0.00366543 -0.0458053 0.00967359 
905 4 0.269908 7.64224 6.19177 -0.0114585 0.00190172 -0.00208187 
927 3 4.49737 9.81017 6.491 0.00716261 -0.00244394 0.00168266 
928 4 3.97415 9.29777 5.87462 -0.00318954 0.0295199 0.00476332 
929 4 3.85276 10.2479 7.04697 0.00821277 0.00951304 0.0136589 
948 3 0.806625 6.80393 9.93262 0.00440185 0.00401666 -0.000809837 
950 4 1.04209 6.00605 9.45914 0.00924816 -0.0154441 0.00402818 
978 3 3.37448 5.91778 7.28461 0.0024451 0.000767636 0.00414966 
979 4 3.63518 6.08362 6.37864 -0.00504613 0.00974486 -0.0276748 
318 3 11.366 10.3557 7.8202 -0.000637428 -2.63104e-05 -0.00196389 
384 3 7.14635 5.92879 11.2944 -0.00271978 0.00454935 0.00709458 
393 3 7.02257 6.02387 7.0882 0.00206671 0.00558755 0.00246631 
394 4 6.20578 5.70478 7.47194 -0.0115698 0.0133132 -0.0373877 
395 4 6.81327 6.1701 6.16568 0.00624886 -0.0116356 -0.0167721 
495 3 8.64636 8.39493 10.061 0.00336205 -0.000682065 0.00376432 
496 4 8.25083 7.52397 10.0959 0.000416754 0.0116027 -0.0194327 
497 4 9.56624 8.23257 9.85198 0.00826314 -0.0217652 -0.0239354 
529 4 7.72187 9.75657 11.173 -0.00682734 -0.00942476 -0.00541616 
530 4 6.95378 11.0581 11.0833 0.00650421 0.0104449 -0.00420056 
568 4 6.01858 7.17953 10.4041 -0.0264145 0.00496826 -0.0133102 
776 4 11.2871 7.9416 6.25786 -0.00118813 -0.0197756 -0.000648235 
891 3 9.88811 5.57584 10.3979 0.00714369 -0.000541176 9.76482e-05 
892 4 9.71559 5.64936 9.45922 0.00788376 0.00161203 0.0134503 
893 4 9.0221 5.48041 10.7943 -0.0128584 0.0105118 0.01007 
1083 3 8.81668 10.7538 8.72059 0.00474314 0.00211541 0.00472254 
1084 4 8.57254 9.89016 9.05342 0.0223493 0.000225194 -0.0106742 
1085 4 9.65156 10.6118 8.27444 -0.0206124 0.000733746 -0.0142243 
1119 3 9.70799 6.07096 7.71951 -0.00375222 -0.00684335 0.00137505 
1120 4 10.0442 6.11644 6.82447 0.01368 -0.0175829 -0.00304682 
1121 4 8.75612 6.07926 7.61899 0.00320924 -0.00788347 -0.00434798 
6 3 14.5069 8.98395 9.76903 -0.00180483 0.00320986 0.00114052 
7 4 13.7815 8.43858 9.46475 -0.00819152 -0.00203201 -0.00667623 
8 4 14.7597 8.60044 10.6088 -0.00361501 0.0161424 0.00319483 
26 4 14.5142 10.7588 9.37033 0.0011747 -0.0147345 -0.0257358 
38 4 16.335 8.8427 9.03136 -0.0170608 -0.0279787 0.0131673 
320 4 11.9269 10.6338 8.5443 -0.0128938 -0.000414611 -0.0322406 
342 3 13.7344 6.28432 6.00191 0.000786727 -0.00705826 -0.00392201 
343 4 14.6617 6.51737 6.04572 -0.00888303 -0.00342549 0.0122803 
409 4 13.0392 5.86977 11.1424 0.000534555 -0.0107387 0.00286519 
410 4 11.7714 6.69639 11.1058 -0.0105039 -0.00644309 -0.022597 
471 3 13.1891 6.90085 8.55823 -0.0016878 0.00384695 0.00737075 
472 4 13.2602 6.71297 7.62235 0.0157403 0.00557376 -0.0106689 
473 4 13.2193 6.04138 8.97852 -0.014628 0.00955741 -0.0263937 
651 3 16.4038 6.81499 6.79853 9.33629e-05 -0.00242029 0.00167857 
652 4 16.6091 5.96698 7.19224 -0.00975704 -0.0204775 -0.0115672 
653 4 16.6647 7.45602 7.45979 0.0145341 0.0199389 0.014324 
36 3 17.1888 8.88267 8.60036 -0.00113849 -0.00352239 0.00403351 
37 4 17.5852 9.69019 8.92748 0.0166396 0.0212738 -0.0116511 
203 4 17.8349 10.6176 6.54675 0.022091 0.0256208 -0.0184657 
227 4 20.7568 6.32592 8.85594 0.000495241 0.0122384 -0.00754558 
244 4 21.6597 9.92109 10.6849 -0.0106695 0.0188445 0.0391619 
294 3 21.9543 10.4291 8.94041 -0.000337198 -0.00010237 0.000613154 
295 4 21.1401 10.2081 8.4882 -0.00849747 0.00400188 -0.0294102 
296 4 22.4579 10.9286 8.29759 0.00083459 0.0188059 -0.0250307 
397 4 19.2653 7.52225 11.097 0.00724922 -0.000961944 -0.0120208 
417 3 19.9288 7.86368 8.34255 -0.00306281 0.00264701 0.0062104 
418 4 19.8787 7.66601 7.40733 0.00597217 0.00193933 0.00920409 
419 4 19.0973 8.294 8.54178 -0.0352712 -0.00710278 0.0154612 
468 3 18.8338 10.6715 10.0368 0.0039364 0.000870436 -0.00103147 
469 4 18.1129 10.7472 10.662 -0.00529447 0.0187035 -0.0262753 
600 3 20.8061 10.1635 5.95194 -0.000341762 0.0109186 -0.00102778 
601 4 21.4134 10.9018 5.90516 -0.0280715 -0.01979 -0.00619322 
602 4 21.3683 9.3971 6.06517 -0.0158824 -0.00261504 -0.01501 
949 4 22.5609 6.93475 9.73602 0.0151889 -0.00254815 -0.024763 
971 4 18.9066 8.50718 5.92375 -0.00363362 -0.0125895 -0.0100712 
39 3 4.33788 13.4115 8.70958 0.00591643 0.00371456 0.00721304 
40 4 4.30451 13.1791 7.78162 -0.01008 0.0161023 0.0224549 
41 4 4.11925 12.6002 9.16814 0.000387368 -0.0250565 0.0507694 
108 3 0.337311 11.8935 6.47898 0.00810889 -0.00634053 -0.00160187 
109 4 0.827136 11.2072 6.02575 -0.00250432 -0.0195093 -0.00446372 
110 4 0.917749 12.6544 6.46105 -0.00283613 -0.000569854 0.00230973 
363 3 3.72666 16.0776 8.66754 -0.00502082 -0.0022399 0.00337066 
364 4 4.1699 15.2548 8.87432 -0.0281 0.00337874 -0.0047973 
365 4 2.80189 15.9024 8.84175 0.0244198 0.00435297 -0.0418192 
498 3 0.886801 15.6591 7.91395 -0.00232171 -0.00278608 0.0022031 
499 4 1.24729 16.2336 7.23853 0.0080158 0.0077808 0.0084454 
500 4 0.541453 14.9082 7.43103 0.00367475 -0.0290047 -0.00677583 
549 3 1.21301 16.2417 10.5218 0.00124224 -0.00244442 -0.00843208 
550 4 0.905715 16.0645 9.6328 -0.00576849 -0.00613966 0.00480527 
558 3 4.61141 16.2932 11.4041 0.00405751 0.00484416 -0.0103515 
559 4 4.37398 16.5713 10.5195 0.0154785 -0.00197546 -0.00783036 
732 3 4.86572 12.645 5.97681 -0.00114959 -0.00205693 -0.00876647 
733 4 5.75283 12.7074 6.3309 -0.02439 0.0123729 -0.0120585 
734 4 4.62015 11.7287 6.1047 0.00638411 0.000985251 -0.00236291 
809 4 3.82418 15.4963 6.62703 0.00396264 0.0205019 0.0233231 
303 3 10.1765 12.763 6.16175 0.00175285 0.00150842 0.000293003 
305 4 10.5132 13.072 7.00279 0.0337956 -0.0012355 -0.0042812 
319 4 11.2364 11.1481 7.29904 0.000681158 -0.00336261 0.00464674 
510 3 7.14609 12.9456 10.3539 0.00281438 0.00262631 -0.00389384 
511 4 6.29084 12.9274 9.92441 -0.00281786 0.0125105 0.0274085 
512 4 7.45814 13.8419 10.2294 -0.0242195 0.00513581 0.0086246 
780 3 11.4123 13.2812 8.60137 -0.00732592 0.00230672 -0.00221931 
781 4 10.7519 12.9655 9.2181 -0.0044299 0.0083057 -0.0340512 
792 3 7.37947 12.2788 6.79054 -0.00151451 0.000800579 0.00240802 
793 4 8.23765 12.363 6.37501 0.00160959 0.0343274 0.00566664 
794 4 7.55863 11.847 7.62583 -0.00935096 -0.0118656 0.0132999 
1098 3 8.10718 15.5052 10.2435 0.00346697 -0.000304256 -0.00234671 
1099 4 8.86167 16.083 10.3582 0.0252636 0.00383343 -0.0165949 
1100 4 7.52726 15.7199 10.9742 0.00794873 -0.00682649 0.0301843 
1134 3 7.08191 15.3776 7.77928 0.00440109 0.00600937 0.00369891 
1135 4 7.36691 15.6358 8.65583 0.0180553 -0.00902638 -0.0168625 
1136 4 7.61555 14.6112 7.56947 -0.00123303 -0.00327322 -0.0130707 
24 3 14.7019 11.6898 9.48942 0.00552569 -0.00358466 0.000396593 
25 4 14.309 11.9076 10.3347 -0.000588546 0.0145851 0.0149504 