ITEM: TIMESTEP
0
ITEM: NUMBER OF ATOMS
96
ITEM: BOX BOUNDS pp pp pp
2.9236100000000000e+00 1.2773600000000000e+01
4.0306300000000004e+00 1.3880599999999999e+01
2.1372399999999998e+00 1.1987200000000000e+01
ITEM: ATOMS id type x y z vx vy vz
1 1 7.33539 13.21 3.42248 -0.00117187 -0.00221552 -0.000407097
2 2 6.55919 12.5851 3.49872 -0.00774524 -0.00560922 -0.00181386
3 2 9.83774 13.069 11.3595 0.0202776 -0.00773223 0.0130654
4 1 12.4082 9.85058 2.62748 0.00316482 -0.00433728 0.00306649
5 2 11.5234 10.1253 2.36164 0.000919759 0.00140273 -0.000522024
6 2 12.3274 9.10077 3.2431 0.0226335 4.04968e-05 -8.87462e-05
7 1 12.1938 7.73284 4.24633 0.000472773 -0.00363498 -0.00171789
8 2 11.2355 7.45461 4.21796 -0.0282329 -0.0285294 -0.036667
9 2 7.96144 8.75175 7.06492 -0.00438335 0.00081548 -0.031194
10 1 7.05357 8.5817 7.44103 -0.000374453 0.00276573 -0.00571583
11 2 6.59073 7.98064 6.83963 -0.00783079 0.0224978 -0.0062467
12 2 6.6302 9.72912 9.01991 -0.00698193 -0.000542699 0.00237664
13 1 6.76198 8.76263 2.65723 -0.00239493 -0.0052339 -0.00121425
14 2 6.47435 9.16243 11.7217 -0.0128923 0.00612836 -0.00572571
15 2 7.06831 7.8993 2.28566 0.0185714 0.0269414 -0.0255431
16 1 9.57647 7.35433 11.0916 0.00250388 -0.00193275 -0.000213121
17 2 9.96382 7.27848 11.9563 0.0163086 0.0198518 -0.0126756
18 2 8.78607 6.80615 11.0045 0.013717 0.0139065 0.01186
19 1 4.70135 5.88388 10.763 -0.00605962 -0.00553081 -0.00230756
20 2 4.13044 5.63781 11.5299 -0.00790031 -0.019057 -0.0047722
21 2 11.0932 8.26741 10.0449 0.00702841 0.00185421 0.0277429
22 1 9.84578 10.2856 11.8697 -0.00207784 -0.00814931 -0.00100306
23 2 9.52135 10.2583 2.95665 0.0165407 0.00160706 -0.0347326
24 2 9.69436 9.33828 11.5533 0.00495987 -0.0106057 -0.00842344
25 1 3.52176 8.54198 6.42727 0.000373508 -0.00112134 0.00199459
26 2 3.80415 9.43278 6.04851 0.0325506 0.0209354 0.00465239
27 2 3.25485 6.18345 3.57726 -0.00092677 -0.00638434 -0.00817575
28 1 9.58055 7.11348 4.20386 0.00084873 -0.00316854 0.000179512
29 2 9.49066 6.41069 4.83766 -0.0425326 -0.0192523 0.0160624
30 2 9.10779 7.90341 4.5614 0.0036435 -0.0149251 -0.0118145
31 1 4.05752 11.096 5.70994 0.00504353 0.00287041 -0.00145335
32 2 3.38952 11.9395 5.65023 -0.00438532 -0.00255211 0.00893135
33 2 4.69413 11.2468 4.94953 0.011958 0.0374182 -0.0147034
34 1 7.70161 5.04145 8.88774 0.00262205 0.00285507 -0.0022122
35 2 7.82146 4.12074 9.27297 -0.000362593 0.000387132 -0.00895085
36 2 7.47339 5.63728 9.643 0.025421 0.0143811 0.00276876
37 1 8.10753 11.9073 10.3868 0.00392713 0.00649602 -0.0128349
38 2 9.25896 12.0939 9.03391 0.0178461 0.0118244 -0.014951
39 2 8.61658 11.3923 11.0575 -0.00282863 0.0188161 0.0193848
40 1 3.09079 13.3637 5.24054 0.00299948 -0.00421416 -0.00200273
41 2 3.47653 4.67538 3.99686 -0.0319595 0.0141703 0.00816278
42 2 12.0119 13.4287 5.0976 -0.0165424 0.017602 0.00582219
43 1 3.91578 5.41083 3.54617 0.000310666 -0.000203443 0.00128405
44 2 12.4579 7.89255 5.19755 -0.0137805 -0.00543768 -0.0267807
45 2 8.13581 12.7496 3.63865 0.0176558 6.62831e-05 -0.0128793
46 1 9.84085 12.3494 8.28321 -0.00183347 0.00871845 -0.00506474
47 2 8.55719 12.7124 7.38381 0.00697628 -0.00915698 0.0168898
48 2 10.2064 11.4816 7.91185 0.0117606 -0.0195438 0.0124369
49 1 10.2414 6.70452 8.11995 0.00258054 0.00358643 0.00319541
50 2 9.5315 6.01838 7.9369 -0.00327989 0.0217479 0.0268674
51 2 10.2062 6.77967 9.08365 -0.00592793 0.0178802 -0.0189382
52 1 9.0341 10.9948 4.49784 -1.62383e-05 0.00433057 0.00369585
53 2 9.07725 10.2478 5.11251 -0.000790979 0.00833319 0.00818846
54 2 8.52088 11.6411 5.10476 0.0316323 0.0159889 0.0103448
55 1 5.09166 10.9874 3.30213 0.00129494 -0.00112865 6.04535e-05
56 2 5.71748 10.2932 3.3577 -0.00746409 -0.00229945 0.0185064
57 2 4.26213 10.6147 2.85963 8.13191e-05 0.00170433 -0.000285739
58 1 6.18158 10.0613 9.832 0.00529679 -0.00530023 0.00651558
59 2 4.59648 13.6773 7.83431 0.0108294 -0.0244818 -0.0193644
60 2 7.41628 11.3282 10.0335 0.000128044 0.032031 -0.0411366
61 1 7.89243 5.51766 6.30135 -0.0029335 -0.0009233 0.00129072
62 2 7.88728 5.68888 7.29701 -0.00825975 -0.00835548 -0.0128703
63 2 6.86404 5.53616 6.08807 0.0231404 -0.00677751 -0.0207894
64 1 5.31846 12.3331 7.91715 -0.00295974 0.000503685 -0.00520649
65 2 4.9356 11.9062 7.04398 -0.0177936 0.0181356 -0.0113302
66 2 3.44507 4.17186 6.42038 -0.0225423 -0.00585126 -0.0183011
67 1 11.3829 9.99322 7.6995 -0.000191709 -0.00282967 0.00888748
68 2 12.0792 9.80379 7.06898 0.0183565 -0.00609222 0.00994249
69 2 11.6686 9.52345 8.57111 -0.0141753 -0.0180088 -0.000191986
70 1 10.4473 4.15815 4.79604 -0.00502442 -0.00247146 0.000534979
71 2 10.1719 13.8548 3.86481 -0.0149646 0.0138253 0.00748359
72 2 9.79336 4.75789 5.23056 -0.000786442 0.00410757 0.0109956
73 1 9.48915 8.75799 6.30997 -0.00057329 0.00688185 0.00505756
74 2 9.71319 7.90471 6.87386 -0.0133335 0.0242866 0.000378322
75 2 9.98982 9.50087 6.80778 -0.00727907 -0.0243238 0.0130907
76 1 12.2958 5.06275 9.7637 0.00309671 0.00378815 0.00687455
77 2 11.8559 5.89435 9.47731 -0.0130813 -0.0183691 -0.0266612
78 2 4.33897 5.45917 10.0154 -0.00458118 -0.0135121 -0.0252815
79 1 11.9612 8.62479 9.96603 -0.00445776 -0.00200106 0.00196166
80 2 12.193 8.96304 10.8373 0.0184141 -0.00099099 0.0240658
81 2 5.53149 10.6429 9.40688 -0.0163603 0.0231863 0.0130805
82 1 7.35931 5.85431 11.6265 -0.00205337 0.00552674 0.0010123
83 2 7.29062 5.16908 2.4154 -0.0043057 0.0202288 -0.00253125
84 2 6.47329 5.86942 11.1518 0.00318033 0.00843625 0.00131841
85 1 10.2179 13.8679 11.6525 0.00482757 -0.00578675 0.00384544
86 2 9.41016 4.64845 11.634 0.0225178 -0.0122307 -0.00800642
87 2 11.6084 4.59742 10.3262 0.00131743 0.00776141 0.00970385
88 1 7.7304 12.6497 6.73974 0.000332476 0.00507113 0.00174708
89 2 6.26269 12.5765 7.70775 0.0240432 0.00547658 -0.00874398
90 2 7.64712 13.607 6.44876 0.0140016 0.00352603 -0.0101879
91 1 5.31985 6.58089 5.84142 -0.00199381 -0.00487436 0.00233522
92 2 4.22916 7.87386 6.28321 -0.0205486 0.00958934 0.00973085
93 2 4.80097 6.11984 6.45676 -0.028521 -0.0193197 0.0131451
94 1 3.83352 4.66469 7.563 -0.00512612 -0.00211303 -0.00150229
95 2 2.991 4.5318 8.25312 -0.0259492 0.0471522 -0.0122269
96 2 4.90976 6.45964 4.98931 -0.00437836 0.0145601 0.00693617
ITEM: TIMESTEP
1
ITEM: NUMBER OF ATOMS
96
ITEM: BOX BOUNDS pp pp pp
2.9236100000000000e+00 1.2773600000000000e+01
4.0306300000000004e+00 1.3880599999999999e+01
2.1372399999999998e+00 1.1987200000000000e+01
ITEM: ATOMS id type x y z vx vy vz
1 1 7.33471 13.2089 3.42227 -0.00154031 -0.00213366 -0.000427555
2 2 6.55715 12.5828 3.49767 -0.000230919 -0.0034037 -0.0023798
3 2 9.84738 13.0644 11.3657 0.0180777 -0.0108125 0.0116523
4 1 12.4099 9.84846 2.62896 0.00366998 -0.00413513 0.00284104
5 2 11.5224 10.1267 2.36112 -0.00471719 0.00386991 -0.00134307
6 2 12.3386 9.09985 3.244 0.022105 -0.00379863 0.00374491
7 1 12.1941 7.73096 4.2454 0.00054124 -0.00390167 -0.00207238
8 2 11.2209 7.44041 4.20005 -0.0290557 -0.0278938 -0.0346623
9 2 7.95905 8.75196 7.04903 -0.00533381 0.000123513 -0.0321593
10 1 7.05336 8.5831 7.43819 -0.000435814 0.00283437 -0.00564933
11 2 6.5871 7.99196 6.8366 -0.00700055 0.0225103 -0.00604297
12 2 6.62643 9.72837 9.02176 -0.0081037 -0.00244488 0.00491722
13 1 6.76083 8.7599 2.65664 -0.00222783 -0.00563491 -0.00117616
14 2 6.46731 9.16661 11.7176 -0.0151147 0.0103745 -0.00987138
15 2 7.07742 7.91337 2.27386 0.0180276 0.028795 -0.0217152
16 1 9.57779 7.35345 11.0914 0.00282678 -0.0015669 -0.000693167
17 2 9.97122 7.2877 11.9507 0.013394 0.016982 -0.00924614
18 2 8.79289 6.81284 11.0114 0.0129116 0.0123744 0.0155315
19 1 4.6984 5.88117 10.7619 -0.00578303 -0.00535546 -0.00199663
20 2 4.12688 5.62827 11.5274 -0.00624632 -0.0190803 -0.0054485
21 2 11.0955 8.2677 10.0592 0.00192735 -0.000776979 0.0293975
22 1 9.84471 10.2814 11.8692 -0.00217594 -0.00852609 -0.00123484
23 2 9.52959 10.2596 2.93921 0.0159135 0.00327771 -0.0336815
24 2 9.69695 9.33406 11.5493 0.0053316 -0.00636341 -0.00769283
25 1 3.52191 8.54143 6.4283 0.000208573 -0.000974635 0.00208793
26 2 3.82082 9.44275 6.05077 0.0337617 0.018223 0.00473818
27 2 3.25541 6.17932 3.57337 0.0031497 -0.00974526 -0.00749052
28 1 9.58098 7.11193 4.20386 0.000861197 -0.00309455 -0.000126143
29 2 9.46878 6.40127 4.8463 -0.0447928 -0.0177028 0.0177685
30 2 9.11014 7.89498 4.55602 0.00547952 -0.0182277 -0.00959526
31 1 4.0601 11.0974 5.70927 0.00529899 0.00293616 -0.00126843
32 2 3.38717 11.9379 5.65458 -0.00502397 -0.00389975 0.00854882
33 2 4.69977 11.2651 4.94181 0.0101605 0.035471 -0.0157176
34 1 7.70293 5.04284 8.88672 0.00263963 0.00270498 -0.00185722
35 2 7.82104 4.12261 9.26825 -0.00131056 0.00700951 -0.00981826
36 2 7.48649 5.64319 9.64376 0.0269631 0.00911915 0.000224899
37 1 8.10957 11.9106 10.3804 0.00424888 0.0067664 -0.0128468
38 2 9.26772 12.0996 9.02714 0.0167524 0.0110305 -0.0115162
39 2 8.61505 11.4015 11.067 -0.00387878 0.0180469 0.0179719
40 1 3.09247 13.3618 5.23974 0.00366705 -0.00352146 -0.00119771
41 2 3.46031 4.6814 4.00167 -0.0325328 0.0100086 0.0108802
42 2 12.003 13.4374 5.10111 -0.0182123 0.0170424 0.00830581
43 1 3.91588 5.41088 3.54676 7.94326e-05 0.000374395 0.00109704
44 2 12.4508 7.89013 5.18458 -0.0146488 -0.00416999 -0.0244323
45 2 8.14415 12.7488 3.63233 0.0152168 -0.00315284 -0.0125113
46 1 9.83998 12.3537 8.28064 -0.00161293 0.0084645 -0.00524366
47 2 8.56013 12.7071 7.39172 0.00449978 -0.0117535 0.0144636
48 2 10.212 11.4729 7.91866 0.010693 -0.0146954 0.0147958
49 1 10.2426 6.70624 8.12154 0.00227365 0.00328706 0.00311808
50 2 9.53105 6.03044 7.95085 0.00106623 0.0260591 0.0286103
51 2 10.2029 6.78878 9.07375 -0.00697902 0.0187281 -0.01973
52 1 9.03399 10.997 4.49984 -0.000429208 0.00466411 0.00430927
53 2 9.07724 10.2517 5.116 0.000733107 0.00717771 0.00572286
54 2 8.53775 11.6483 5.10852 0.0356635 0.01291 0.00479396
55 1 5.09222 10.9869 3.30214 0.000949592 -0.000761879 -8.48628e-07
56 2 5.71443 10.2906 3.36667 -0.00472309 -0.00802571 0.0173598
57 2 4.26315 10.6158 2.86023 0.00390728 0.00245524 0.00266637
58 1 6.18424 10.0587 9.83517 0.00529765 -0.00514791 0.0061287
59 2 4.6005 13.6656 7.82448 0.00491147 -0.0219589 -0.0197412
60 2 7.41555 11.3434 10.013 -0.0027189 0.0287535 -0.0403302
61 1 7.89078 5.51717 6.30202 -0.0036055 -0.00106025 0.00131764
62 2 7.88335 5.68444 7.28944 -0.00752356 -0.00920634 -0.0166123
63 2 6.87856 5.53323 6.07777 0.0338524 -0.00485457 -0.0204433
64 1 5.31689 12.3333 7.91449 -0.00325234 0.000505252 -0.00545928
65 2 4.92713 11.9156 7.03936 -0.0158817 0.0192672 -0.00715473
66 2 3.43264 4.16761 6.40971 -0.0270049 -0.0111806 -0.0244218
67 1 11.3828 9.99184 7.704 -0.000319222 -0.00269766 0.00909093
68 2 12.0888 9.80052 7.07374 0.0197702 -0.00685742 0.00940722
69 2 11.6613 9.51474 8.57026 -0.0149204 -0.0168397 -0.00298569
70 1 10.4447 4.15696 4.7963 -0.00544961 -0.00227994 0.000540096
71 2 10.1644 13.8623 3.86918 -0.0149703 0.0158979 0.00969686
72 2 9.79326 4.75905 5.23514 0.000468539 0.000497286 0.00736232
73 1 9.4889 8.76137 6.31263 -0.000446596 0.00664591 0.00552355
74 2 9.70644 7.91849 6.87307 -0.0136176 0.02984 -0.00329263
75 2 9.98602 9.4876 6.81391 -0.0075508 -0.0276459 0.0117144
76 1 12.2973 5.06462 9.76713 0.00280801 0.00370479 0.00685359
77 2 11.8495 5.88449 9.46419 -0.0125482 -0.0208996 -0.025789
78 2 4.33571 5.45174 10.0016 -0.00808536 -0.0156709 -0.0289932
79 1 11.959 8.62378 9.96695 -0.00417566 -0.00201324 0.00179835
80 2 12.2025 8.96305 10.85 0.0193027 0.000702113 0.0258023
81 2 5.52335 10.6545 9.41391 -0.0153709 0.0223952 0.0154
82 1 7.35825 5.85713 11.6269 -0.00217806 0.00575451 0.000642366
83 2 7.28831 5.17804 2.41504 -0.00496827 0.0152974 0.00140202
84 2 6.47514 5.87357 11.1532 0.00399859 0.00817204 0.00398501
85 1 10.2202 13.8652 11.6544 0.00450782 -0.00519569 0.00393458
86 2 9.42331 4.64078 11.63 0.0293881 -0.0180523 -0.00802819
87 2 11.6096 4.60188 10.3305 0.00335252 0.00999849 0.00732555
88 1 7.73059 12.6523 6.74063 0.000413562 0.00536564 0.00182146
89 2 6.27529 12.5792 7.70277 0.0255629 0.00519694 -0.0111944
90 2 7.65403 13.6086 6.44349 0.0137655 0.00259558 -0.0107286
91 1 5.31898 6.57855 5.84258 -0.0015522 -0.00452936 0.00235851
92 2 4.21951 7.8791 6.28797 -0.0175328 0.0107738 0.00924847
93 2 4.78556 6.1089 6.46425 -0.0322497 -0.0236484 0.0158307
94 1 3.83091 4.6635 7.56224 -0.00532844 -0.00264621 -0.00157179
95 2 2.98014 4.55553 8.24585 -0.017057 0.0473473 -0.0168824
96 2 4.90698 6.4662 4.9919 -0.00669933 0.0117094 0.00348068
ITEM: TIMESTEP
2
ITEM: NUMBER OF ATOMS
96
ITEM: BOX BOUNDS pp pp pp
2.9236100000000000e+00 1.2773600000000000e+01
4.0306300000000004e+00 1.3880599999999999e+01
2.1372399999999998e+00 1.1987200000000000e+01
ITEM: ATOMS id type x y z vx vy vz
1 1 7.33385 13.2079 3.42205 -0.00185699 -0.00207608 -0.000435738
2 2 6.55896 12.5817 3.49634 0.00742085 -0.00122825 -0.00293332
3 2 9.85582 13.0582 11.3712 0.0155808 -0.0141357 0.0100974
4 1 12.4119 9.84644 2.63032 0.00414083 -0.00390713 0.00257152
5 2 11.5187 10.1292 2.3603 -0.0095248 0.00574738 -0.00162138
6 2 12.3495 9.09697 3.24684 0.0211672 -0.00759354 0.00753813
7 1 12.1943 7.72894 4.24426 0.00047296 -0.00421847 -0.00253251
8 2 11.2064 7.42672 4.1833 -0.0277863 -0.0265364 -0.0320691
9 2 7.95611 8.75187 7.03276 -0.0065832 -0.000391028 -0.032691
10 1 7.05313 8.58453 7.43538 -0.00045938 0.00292701 -0.00557818
11 2 6.58373 8.00315 6.83359 -0.00679268 0.0219794 -0.00615818
12 2 6.6221 9.72668 9.02483 -0.00920819 -0.00434712 0.0071163
13 1 6.75975 8.757 2.65605 -0.00211122 -0.0059268 -0.0012094
14 2 6.45924 9.1728 11.7118 -0.0169207 0.0140495 -0.0125853
15 2 7.08634 7.9281 2.26394 0.0178499 0.0295239 -0.0181276
16 1 9.5793 7.35276 11.0909 0.0032154 -0.00114184 -0.00119755
17 2 9.97721 7.29546 11.9471 0.0106915 0.014041 -0.00530811
18 2 8.79898 6.81852 11.02 0.0108886 0.0099912 0.0191125
19 1 4.69557 5.87852 10.761 -0.00558015 -0.00525759 -0.00179626
20 2 4.12419 5.61873 11.5245 -0.00443087 -0.0190244 -0.00650413
21 2 11.0951 8.26663 10.0743 -0.00328665 -0.00348553 0.030924
22 1 9.8436 10.2771 11.8685 -0.00220008 -0.0088588 -0.00164267
23 2 9.53726 10.2616 2.92297 0.0143254 0.00461759 -0.0299731
24 2 9.69969 9.33192 11.5456 0.00554669 -0.002447 -0.00688827
25 1 3.52197 8.54101 6.42936 2.6745e-05 -0.000656054 0.00214635
26 2 3.83791 9.451 6.05325 0.0341994 0.0141836 0.00545036
27 2 3.258 6.1737 3.56977 0.00707787 -0.0122072 -0.00702295
28 1 9.58141 7.11039 4.20373 0.000882478 -0.0031797 -0.00036282
29 2 9.44587 6.39299 4.85543 -0.0465572 -0.0148178 0.0180377
30 2 9.11327 7.88518 4.5518 0.0067551 -0.0202871 -0.00716137
31 1 4.06282 11.0989 5.70867 0.00560648 0.00302453 -0.00114776
32 2 3.3845 11.9356 5.65878 -0.0056263 -0.00571676 0.00831351
33 2 4.70429 11.2823 4.93381 0.00754836 0.0330454 -0.0158475
34 1 7.70425 5.04415 8.88588 0.00265532 0.00258133 -0.00150685
35 2 7.82015 4.12775 9.26315 -0.00218341 0.0132477 -0.0104037
36 2 7.50035 5.6464 9.64322 0.028422 0.00375552 -0.00225316
37 1 8.11178 11.9141 10.374 0.00458052 0.00702873 -0.012825
38 2 9.27571 12.1049 9.02239 0.0148703 0.0101758 -0.00695403
39 2 8.6127 11.4103 11.0755 -0.00605287 0.0173644 0.0153379
40 1 3.09446 13.3602 5.23934 0.00422509 -0.00277796 -0.000382823
41 2 3.444 4.68539 4.00774 -0.032266 0.00616358 0.0131021
42 2 11.9937 13.4457 5.10591 -0.0183674 0.0162341 0.0109283
43 1 3.91586 5.4112 3.54727 -0.000188414 0.000875672 0.000947998
44 2 12.4433 7.88838 5.17312 -0.015545 -0.00279207 -0.020851
45 2 8.15103 12.7464 3.62614 0.0118384 -0.00599718 -0.0123171
46 1 9.83924 12.3579 8.27797 -0.00129994 0.00815443 -0.00547885
47 2 8.56169 12.7006 7.39827 0.00154392 -0.0139226 0.0115405
48 2 10.2171 11.4669 7.92665 0.00943473 -0.00897707 0.0170575
49 1 10.2437 6.70781 8.12307 0.00202157 0.00301701 0.0029759
50 2 9.53257 6.04444 7.96551 0.0044326 0.0293291 0.0296753
51 2 10.1992 6.7984 9.06392 -0.00778429 0.0199287 -0.0186705
52 1 9.03367 10.9995 4.50215 -0.000811566 0.00498524 0.00489866
53 2 9.07798 10.255 5.11823 0.00219165 0.00604945 0.00324236
54 2 8.55654 11.654 5.10955 0.0392128 0.0101699 -0.000386566
55 1 5.09261 10.9866 3.30213 0.000634344 -0.000388281 -4.2882e-05
56 2 5.71276 10.2852 3.37506 -0.00213177 -0.0136379 0.0162139
57 2 4.26604 10.6172 2.8623 0.00742417 0.0030523 0.00548769
58 1 6.18688 10.0562 9.83813 0.0052105 -0.00489919 0.00571732
59 2 4.60139 13.6553 7.81457 -0.00159722 -0.0190107 -0.0197419
60 2 7.41356 11.357 9.99317 -0.00484043 0.0252659 -0.0387054
61 1 7.88882 5.5166 6.30267 -0.00411212 -0.00121799 0.00123325
62 2 7.87976 5.67967 7.2804 -0.00688675 -0.00964423 -0.0186515
63 2 6.89789 5.53131 6.06763 0.0420241 -0.00277638 -0.0203029
64 1 5.31521 12.3336 7.91169 -0.00343965 0.000537776 -0.00572537
65 2 4.91972 11.9255 7.03683 -0.0136383 0.0201722 -0.0030685
66 2 3.41807 4.16068 6.39596 -0.0310527 -0.0166555 -0.0307193
67 1 11.3826 9.99052 7.70859 -0.000377923 -0.00256895 0.00922865
68 2 12.099 9.79693 7.07839 0.0202664 -0.00736382 0.00948136
69 2 11.6537 9.50661 8.56812 -0.0155892 -0.0157618 -0.00528262
70 1 10.4419 4.15587 4.79658 -0.00587718 -0.00207838 0.000582373
71 2 10.1569 13.8707 3.87451 -0.0149881 0.0177199 0.0112248
72 2 9.79383 4.75839 5.23792 0.00178463 -0.00308883 0.00389827
73 1 9.4887 8.76464 6.31549 -0.000382183 0.00640405 0.00588674
74 2 9.69957 7.93455 6.87057 -0.0137606 0.0331726 -0.0063536
75 2 9.98227 9.47322 6.81949 -0.00702956 -0.0286254 0.0109329
76 1 12.2986 5.06645 9.77055 0.00253556 0.00362568 0.00682933
77 2 11.8434 5.87345 9.45152 -0.0121208 -0.0230182 -0.0248815
78 2 4.33088 5.4435 9.98641 -0.010762 -0.0167147 -0.0305424
79 1 11.957 8.62278 9.96783 -0.00385535 -0.00197551 0.00178428
80 2 12.2123 8.96374 10.8631 0.0197962 0.00173031 0.0255856
81 2 5.51612 10.6653 9.42228 -0.012883 0.0202275 0.0183273
82 1 7.35713 5.86006 11.6271 -0.0022756 0.0060012 0.000263593
83 2 7.28565 5.18438 2.4168 -0.00565837 0.00997495 0.00571664
84 2 6.47729 5.87759 11.1558 0.00435405 0.00791437 0.00637426
85 1 10.2224 13.8627 11.6564 0.0043055 -0.0046516 0.00403359
86 2 9.43955 4.6304 11.626 0.034646 -0.0228679 -0.00809498
87 2 11.6118 4.60742 10.3335 0.00528726 0.0119971 0.00508601
88 1 7.73081 12.6551 6.74156 0.000465134 0.00563782 0.00190813
89 2 6.28825 12.5817 7.69656 0.0255003 0.00444405 -0.0136828
90 2 7.66089 13.6096 6.43803 0.0137603 0.00153234 -0.0109382
91 1 5.3183 6.57636 5.84378 -0.00123424 -0.00429092 0.00249251
92 2 4.21163 7.88463 6.29246 -0.0135401 0.0107535 0.00863755
93 2 4.76872 6.09619 6.47259 -0.034138 -0.0263241 0.0164578
94 1 3.82819 4.66204 7.56143 -0.00554293 -0.00315929 -0.00168243
95 2 2.97394 4.57915 8.23624 -0.00749482 0.0467304 -0.0215077
96 2 4.90306 6.47135 4.99279 -0.00886986 0.00891595 0.000321735
ITEM: TIMESTEP
3
ITEM: NUMBER OF ATOMS
96
ITEM: BOX BOUNDS pp pp pp
2.9236100000000000e+00 1.2773600000000000e+01
4.0306300000000004e+00 1.3880599999999999e+01
2.1372399999999998e+00 1.1987200000000000e+01
ITEM: ATOMS id type x y z vx vy vz
1 1 7.33285 13.2068 3.42183 -0.00210164 -0.00202337 -0.000435319
2 2 6.56457 12.5816 3.49474 0.0146986 0.000623961 -0.00345079
3 2 9.86296 13.0503 11.3758 0.0129723 -0.0173677 0.00852907
4 1 12.4141 9.84455 2.63153 0.00454902 -0.00367003 0.00226655
5 2 11.5129 10.1324 2.35949 -0.013116 0.00688662 -0.00123347
6 2 12.3598 9.09225 3.25154 0.0198297 -0.0109937 0.0109995
7 1 12.1945 7.72674 4.24286 0.000279499 -0.00458016 -0.00308422
8 2 11.1931 7.41388 4.16798 -0.0245895 -0.0244825 -0.0289138
9 2 7.95247 8.75157 7.01634 -0.00810824 -0.000711752 -0.0327702
10 1 7.0529 8.58602 7.43261 -0.000446996 0.00304029 -0.00550613
11 2 6.5803 8.01394 6.83044 -0.00722001 0.0209316 -0.00655447
12 2 6.61722 9.72402 9.02888 -0.0102345 -0.00627828 0.00880629
13 1 6.75872 8.75397 2.65543 -0.00205934 -0.00608854 -0.00132356
14 2 6.45039 9.18066 11.7051 -0.0181363 0.0168735 -0.0135833
15 2 7.09527 7.94289 2.25574 0.0180826 0.0290771 -0.0149347
16 1 9.58101 7.3523 11.0902 0.0036604 -0.000674086 -0.00170605
17 2 9.98191 7.30174 11.9454 0.00816591 0.0111268 -0.00113399
18 2 8.80378 6.82283 11.0305 0.0078343 0.00693289 0.022558
19 1 4.69282 5.87591 10.7601 -0.00545172 -0.00524145 -0.00172223
20 2 4.12245 5.60924 11.5209 -0.00252352 -0.0189015 -0.00783109
21 2 11.0922 8.26422 10.0901 -0.00806904 -0.00604142 0.0322655
22 1 9.84251 10.2726 11.8675 -0.00214873 -0.00913188 -0.00220597
23 2 9.54391 10.2642 2.90924 0.0118569 0.0056399 -0.0238228
24 2 9.7025 9.33161 11.5424 0.00556388 0.000863147 -0.00607058
25 1 3.52193 8.54078 6.43044 -0.000162477 -0.000186928 0.00217168
26 2 3.85502 9.45694 6.05622 0.0338539 0.00910719 0.00668564
27 2 3.26249 6.16711 3.56635 0.0106086 -0.0135612 -0.00676489
28 1 9.58186 7.10875 4.2035 0.000906779 -0.00342315 -0.000535575
29 2 9.42222 6.38646 4.86434 -0.0477047 -0.0108013 0.0169543
30 2 9.11689 7.87469 4.54886 0.0074248 -0.0209159 -0.00453893
31 1 4.06571 11.1005 5.70812 0.00595502 0.00313373 -0.00108732
32 2 3.38154 11.9322 5.6629 -0.00610719 -0.0081184 0.00825144
33 2 4.70731 11.2981 4.92596 0.00421668 0.0301637 -0.0151754
34 1 7.70558 5.04542 8.88521 0.00267041 0.00249225 -0.00118638
35 2 7.81885 4.13585 9.25785 -0.00291474 0.018621 -0.010585
36 2 7.51491 5.64694 9.64151 0.0296938 -0.00136948 -0.00436272
37 1 8.11415 11.9176 10.3675 0.00490322 0.0072712 -0.0127831
38 2 9.28259 12.1098 9.02019 0.0123978 0.0093455 -0.00148121
39 2 8.609 11.4189 11.0823 -0.00916691 0.0167695 0.0116229
40 1 3.0967 13.359 5.23936 0.0046701 -0.00198241 0.000436293
41 2 3.42805 4.68757 4.01477 -0.0310202 0.00291115 0.0146825
42 2 11.9847 13.4536 5.11204 -0.0170775 0.0151715 0.013636
43 1 3.91569 5.41176 3.54771 -0.000485333 0.0012694 0.000847126
44 2 12.4353 7.88734 5.16373 -0.0164504 -0.00129859 -0.0162279
45 2 8.15599 12.7428 3.62001 0.0077038 -0.00844868 -0.0122734
46 1 9.83868 12.3619 8.27516 -0.000914319 0.00780346 -0.00574186
47 2 8.56167 12.6932 7.40326 -0.00173386 -0.0156212 0.00823956
48 2 10.2215 11.4639 7.93572 0.00812478 -0.00274547 0.0190665
49 1 10.2446 6.70925 8.12451 0.00184622 0.00279109 0.00277429
50 2 9.53548 6.05977 7.98052 0.00647374 0.0312552 0.0299831
51 2 10.1952 6.80871 9.05508 -0.00833017 0.0215247 -0.0157632
52 1 9.03317 11.002 4.50474 -0.00114578 0.00527526 0.00543149
53 2 9.07943 10.2577 5.11924 0.00354545 0.0049272 0.000874644
54 2 8.57696 11.6585 5.10813 0.0420658 0.00804779 -0.00483494
55 1 5.09285 10.9865 3.3021 0.000385962 -3.08559e-05 -5.67884e-05
56 2 5.7123 10.277 3.38288 -1.27724e-06 -0.0187112 0.0150501
57 2 4.27057 10.6188 2.86572 0.0103557 0.00342126 0.0080379
58 1 6.18945 10.0538 9.84088 0.00504944 -0.00456745 0.00530938
59 2 4.5989 13.6466 7.80474 -0.00850264 -0.0156528 -0.0193542
60 2 7.41071 11.3687 9.97433 -0.00611529 0.0217854 -0.036226
61 1 7.88667 5.51595 6.30325 -0.00440775 -0.00139483 0.00103703
62 2 7.87646 5.6748 7.27079 -0.00636179 -0.00962924 -0.0187903
63 2 6.92058 5.53045 6.05747 0.0469786 -0.000572383 -0.0205817
64 1 5.31345 12.3339 7.90876 -0.00351466 0.000598403 -0.00599416
65 2 4.91349 11.9357 7.03629 -0.0111954 0.0207513 0.000744111
66 2 3.40158 4.15096 6.37899 -0.0346986 -0.0223234 -0.0374261
67 1 11.3824 9.98927 7.71323 -0.000365968 -0.00243968 0.00929311
68 2 12.1091 9.79316 7.08322 0.0198154 -0.00758884 0.0101557
69 2 11.6457 9.49898 8.56498 -0.0161641 -0.0148668 -0.00693242
70 1 10.4388 4.15488 4.79689 -0.00628976 -0.00187978 0.000660022
71 2 10.1494 13.88 3.8804 -0.0150447 0.0192505 0.0119099
72 2 9.79504 4.75596 5.23904 0.00294693 -0.00641817 0.000805907
73 1 9.48852 8.76778 6.31851 -0.000384709 0.0061734 0.00612894
74 2 9.69268 7.95166 6.86671 -0.0137418 0.0339293 -0.00861936
75 2 9.97899 9.45897 6.82485 -0.00566657 -0.0271608 0.0108196
76 1 12.2998 5.06825 9.77396 0.00229017 0.00355391 0.0068032
77 2 11.8374 5.86147 9.43931 -0.0118285 -0.0246376 -0.0240061
78 2 4.32494 5.43503 9.97103 -0.0125502 -0.0165642 -0.0297993
79 1 11.9552 8.6218 9.96874 -0.00352847 -0.00190159 0.00192381
80 2 12.2223 8.96478 10.8756 0.0198464 0.00211869 0.0234569
81 2 5.51047 10.6747 9.43224 -0.00918309 0.0169266 0.0216138
82 1 7.35597 5.86313 11.6272 -0.00234488 0.00623728 -9.14549e-05
83 2 7.28265 5.18801 2.42076 -0.00631558 0.00472434 0.00997664
84 2 6.47949 5.88149 11.1595 0.00418239 0.0076773 0.00842636
85 1 10.2245 13.8605 11.6585 0.00423868 -0.00420192 0.00413669
86 2 9.45795 4.61791 11.6219 0.0378073 -0.026266 -0.00824326
87 2 11.6149 4.61388 10.3355 0.0069847 0.0136427 0.00314319
88 1 7.73105 12.6579 6.74254 0.000473884 0.00587915 0.0019986
89 2 6.30079 12.5837 7.68909 0.0239381 0.00327819 -0.0161552
90 2 7.66779 13.6101 6.43255 0.0139651 0.00040701 -0.0108399
91 1 5.31774 6.57426 5.84507 -0.00106527 -0.00416374 0.00271865
92 2 4.20597 7.88985 6.29661 -0.00869417 0.00954655 0.00793224
93 2 4.75142 6.08258 6.48071 -0.0340511 -0.0272837 0.0150065
94 1 3.82537 4.66034 7.56055 -0.00574972 -0.0036361 -0.00183334
95 2 2.97264 4.60226 8.22434 0.0023174 0.0453016 -0.0259268
96 2 4.89811 6.47512 4.99222 -0.0107019 0.00622988 -0.00221924
ITEM: TIMESTEP
4
ITEM: NUMBER OF ATOMS
96
ITEM: BOX BOUNDS pp pp pp
2.9236100000000000e+00 1.2773600000000000e+01
4.0306300000000004e+00 1.3880599999999999e+01
2.1372399999999998e+00 1.1987200000000000e+01
ITEM: ATOMS id type x y z vx vy vz
1 1 7.33175 13.2058 3.42162 -0.00225877 -0.00195468 -0.000430606
2 2 6.57366 12.5823 3.49289 0.0211061 0.00186674 -0.00390954
3 2 9.86879 13.0408 11.3797 0.010443 -0.020181 0.0070723
4 1 12.4164 9.84277 2.63259 0.0048736 -0.00344024 0.00193707
5 2 11.5056 10.1361 2.35906 -0.0152336 0.0071951 -0.000118605
6 2 12.3693 9.08598 3.25784 0.0181161 -0.013692 0.0138703
7 1 12.1946 7.72436 4.24117 -1.91011e-05 -0.00497834 -0.00370575
8 2 11.1819 7.40223 4.15438 -0.0197315 -0.021802 -0.0252557
9 2 7.948 8.75116 6.99999 -0.00984733 -0.000826925 -0.0324069
10 1 7.05269 8.58757 7.42987 -0.00040429 0.00316835 -0.00543836
11 2 6.57651 8.02408 6.82703 -0.00824658 0.0194383 -0.00715289
12 2 6.61186 9.7204 9.03363 -0.0111364 -0.00825868 0.00985256
13 1 6.75769 8.75091 2.65473 -0.00208024 -0.00611101 -0.00151898
14 2 6.4411 9.18968 11.6982 -0.0186584 0.0186749 -0.012773
15 2 7.10442 7.95717 2.24901 0.0187451 0.0274818 -0.0122435
16 1 9.58296 7.35209 11.0892 0.004146 -0.000184187 -0.00219797
17 2 9.98538 7.30659 11.9459 0.00576249 0.00832528 0.00298349
18 2 8.80682 6.82546 11.0426 0.0040522 0.00344822 0.0258333
19 1 4.69012 5.87328 10.7593 -0.00538377 -0.00530028 -0.00177501
20 2 4.12167 5.59983 11.5166 -0.00061584 -0.0187325 -0.00927605
21 2 11.0871 8.26059 10.1066 -0.0119371 -0.00823773 0.0333526
22 1 9.84146 10.2679 11.8663 -0.00202694 -0.00933393 -0.00288785
23 2 9.54912 10.2672 2.89915 0.00867499 0.00636722 -0.0157151
24 2 9.70526 9.33278 11.5395 0.00535514 0.00334935 -0.00528122
25 1 3.52181 8.54082 6.43153 -0.00034607 0.0004007 0.0021661
26 2 3.87177 9.46011 6.05993 0.0327514 0.00332285 0.00832232
27 2 3.26861 6.16014 3.563 0.01352 -0.013665 -0.00669858
28 1 9.58232 7.10696 4.2032 0.000926163 -0.00381285 -0.000651562
29 2 9.39816 6.38219 4.87238 -0.0481525 -0.00593844 0.0146749
30 2 9.12069 7.86427 4.54727 0.00750308 -0.0200292 -0.00178095
31 1 4.06877 11.1021 5.70758 0.00633056 0.00326089 -0.00107935
32 2 3.37839 11.9275 5.66703 -0.00638921 -0.0112077 0.00838864
33 2 4.70851 11.3124 4.91864 0.000318733 0.0268813 -0.0138357
34 1 7.70692 5.04665 8.8847 0.00268561 0.00244523 -0.000920357
35 2 7.81723 4.14637 9.25257 -0.0034459 0.0226761 -0.0102604
36 2 7.53005 5.64503 9.63886 0.0306962 -0.00592211 -0.00582168
37 1 8.11668 11.9213 10.3612 0.0051998 0.00748915 -0.0127375
38 2 9.28811 12.1143 9.02091 0.00957315 0.00865309 0.00455427
39 2 8.60353 11.4271 11.0871 -0.0129667 0.0162138 0.00707369
40 1 3.09913 13.3582 5.23978 0.00500365 -0.00113898 0.00125057
41 2 3.41298 4.6883 4.02242 -0.0287188 0.000475689 0.0155094
42 2 11.9766 13.4609 5.11954 -0.0146209 0.0138364 0.0162701
43 1 3.91537 5.41247 3.54811 -0.000801652 0.00153264 0.000800987
44 2 12.4268 7.88708 5.15689 -0.0173595 0.000304523 -0.0108392
45 2 8.15873 12.738 3.61387 0.00305578 -0.0105191 -0.0123462
46 1 9.83832 12.3657 8.27222 -0.000481085 0.00742601 -0.00600194
47 2 8.55996 12.685 7.40651 -0.00513704 -0.016855 0.00474753
48 2 10.2252 11.4642 7.94571 0.00689132 0.00365348 0.020699
49 1 10.2455 6.7106 8.12584 0.00176581 0.00262254 0.00252561
50 2 9.53904 6.07569 7.99549 0.00686012 0.0315548 0.029434
51 2 10.1909 6.81992 9.04816 -0.00857053 0.023585 -0.0111162
52 1 9.03253 11.0047 4.50758 -0.00141745 0.0055157 0.00587667
53 2 9.08153 10.2599 5.11911 0.00476574 0.00378028 -0.00125334
54 2 8.59861 11.6621 5.10472 0.0440525 0.00681549 -0.00821336
55 1 5.093 10.9866 3.30207 0.000235178 0.000289431 -3.5448e-05
56 2 5.71276 10.2665 3.39011 0.00141613 -0.0228721 0.0138443
57 2 4.27639 10.6206 2.87033 0.0124628 0.00350419 0.0101948
58 1 6.19193 10.0516 9.84344 0.00483187 -0.00417071 0.00493131
59 2 4.59289 13.6397 7.79521 -0.015622 -0.0118855 -0.0185332
60 2 7.40745 11.3787 9.95694 -0.00649813 0.0184786 -0.0329172
61 1 7.88442 5.5152 6.3037 -0.00445925 -0.00158846 0.000739436
62 2 7.87339 5.67004 7.26161 -0.00598511 -0.00916487 -0.0170085
63 2 6.94487 5.53073 6.04705 0.0482599 0.00172975 -0.0214643
64 1 5.31169 12.3342 7.9057 -0.00347575 0.000682438 -0.00625416
65 2 4.90852 11.9462 7.03757 -0.00869898 0.0209195 0.00410313
66 2 3.38337 4.13836 6.35853 -0.0379108 -0.0281319 -0.0446637
67 1 11.3822 9.98808 7.71788 -0.000286925 -0.0023057 0.00928176
68 2 12.1188 9.78934 7.08854 0.0184625 -0.00753018 0.0113601
69 2 11.6375 9.49174 8.56119 -0.0166387 -0.0142359 -0.00781923
70 1 10.4356 4.15399 4.79724 -0.00667076 -0.00169736 0.000768053
71 2 10.1419 4.03998 3.88642 -0.0151538 0.0204694 0.0116633
72 2 9.79678 4.75197 5.23873 0.00375727 -0.00927293 -0.00173186
73 1 9.48832 8.77081 6.32162 -0.000452896 0.00597293 0.00624214
74 2 9.68583 7.96848 6.86195 -0.0135472 0.0319455 -0.00995752
75 2 9.9766 9.44606 6.83031 -0.0034931 -0.0233765 0.0113763
76 1 12.3009 5.07001 9.77736 0.0020728 0.00349005 0.00677311
77 2 11.8315 5.84881 9.42751 -0.0116832 -0.0257118 -0.0232313
78 2 4.31833 5.42693 9.95661 -0.0134691 -0.0152615 -0.0268735
79 1 11.9535 8.62088 9.96975 -0.00322566 -0.00180756 0.00221145
80 2 12.2321 8.96586 10.8866 0.0194457 0.00194349 0.0196068