ITEM: TIMESTEP
0
ITEM: NUMBER OF ATOMS
96
ITEM: BOX BOUNDS pp pp pp
2.9236100000000000e+00 1.2773600000000000e+01
4.0306300000000004e+00 1.3880599999999999e+01
2.1372399999999998e+00 1.1987200000000000e+01
ITEM: ATOMS id type x y z vx vy vz
1 1 5.29763 13.8466 2.88244 0 0 0
2 2 5.04494 12.9407 3.17358 0 0 0
3 2 11.2921 13.5233 3.01014 0 0 0
4 1 2.96744 9.80062 11.7886 0 0 0
5 2 11.8795 10.1098 11.5872 0 0 0
6 2 12.7368 8.76924 2.2802 0 0 0
7 1 3.0208 7.42589 3.07676 0 0 0
8 2 12.0347 7.00718 3.21475 0 0 0
9 2 8.79495 8.6213 7.17533 0 0 0
10 1 7.81428 8.9535 7.12895 0 0 0
11 2 7.12194 8.12312 6.83755 0 0 0
12 2 7.45977 9.45071 7.87818 0 0 0
13 1 6.51428 9.29281 4.06196 0 0 0
14 2 5.90048 8.67407 4.55289 0 0 0
15 2 6.6877 8.6549 3.2874 0 0 0
16 1 9.72527 7.25453 10.8174 0 0 0
17 2 10.0504 7.17767 11.7951 0 0 0
18 2 8.76796 7.38522 11.0106 0 0 0
19 1 4.56752 6.67303 10.6201 0 0 0
20 2 4.20222 6.88766 11.5118 0 0 0
21 2 4.06507 8.46809 9.57731 0 0 0
22 1 10.0266 10.1276 11.2321 0 0 0
23 2 9.70279 9.96123 2.25091 0 0 0
24 2 10.0903 9.27372 10.7862 0 0 0
25 1 4.47459 7.78307 5.33539 0 0 0
26 2 3.89042 8.00587 6.08798 0 0 0
27 2 3.67949 6.35529 5.29788 0 0 0
28 1 10.0848 6.97578 3.58419 0 0 0
29 2 9.38241 6.44744 4.11984 0 0 0
30 2 10.0223 7.9189 3.95227 0 0 0
31 1 11.4064 11.0912 5.18939 0 0 0
32 2 11.38 12.0328 4.97461 0 0 0
33 2 12.2038 10.7841 4.74488 0 0 0
34 1 7.66374 4.52378 10.6633 0 0 0
35 2 8.15691 13.5215 10.7303 0 0 0
36 2 7.20776 4.66518 11.5204 0 0 0
37 1 8.46632 11.9377 10.1593 0 0 0
38 2 8.90816 12.3045 9.38284 0 0 0
39 2 9.10997 11.2651 10.4659 0 0 0
40 1 11.1092 13.8337 4.77956 0 0 0
41 2 11.8585 4.6355 4.93603 0 0 0
42 2 10.4007 4.66392 4.74533 0 0 0
43 1 3.49428 5.35647 5.19793 0 0 0
44 2 3.44667 7.66948 3.95094 0 0 0
45 2 4.86583 4.57212 3.52665 0 0 0
46 1 10.008 13.2686 8.16499 0 0 0
47 2 9.3922 13.2261 7.39217 0 0 0
48 2 10.5612 12.4629 7.97621 0 0 0
49 1 10.8784 6.08648 8.60879 0 0 0
50 2 10.5079 5.17204 8.4122 0 0 0
51 2 10.4374 6.36281 9.47644 0 0 0
52 1 9.42268 9.60942 3.91899 0 0 0
53 2 9.79246 10.0907 4.61806 0 0 0
54 2 8.41689 9.57293 4.01614 0 0 0
55 1 4.48169 11.2165 3.66975 0 0 0
56 2 5.20782 10.5742 3.74738 0 0 0
57 2 3.89254 10.8444 2.84938 0 0 0
58 1 6.64349 9.95948 9.26698 0 0 0
59 2 5.06635 10.3577 6.65623 0 0 0
60 2 7.13077 10.7959 9.46942 0 0 0
61 1 6.06746 4.99675 8.23196 0 0 0
62 2 6.56711 4.75856 9.05315 0 0 0
63 2 5.14275 4.77621 8.39697 0 0 0
64 1 5.00279 11.2515 6.35294 0 0 0
65 2 4.62044 11.1289 5.47336 0 0 0
66 2 4.08248 12.7034 7.17752 0 0 0
67 1 11.7554 10.532 7.91394 0 0 0
68 2 12.1302 10.7957 7.04967 0 0 0
69 2 12.5935 10.3699 8.39607 0 0 0
70 1 8.25664 5.38122 4.82262 0 0 0
71 2 8.19707 4.39975 5.09696 0 0 0
72 2 7.5261 5.88268 5.3516 0 0 0
73 1 10.2396 8.21951 7.2351 0 0 0
74 2 10.4955 7.26145 7.51331 0 0 0
75 2 10.9226 8.80288 7.67144 0 0 0
76 1 3.69185 4.14801 10.6319 0 0 0
77 2 2.96046 4.06464 11.3091 0 0 0
78 2 4.25675 5.6566 10.4864 0 0 0
79 1 4.10052 9.40653 9.36301 0 0 0
80 2 3.75442 9.78415 10.2265 0 0 0
81 2 5.63073 9.96959 9.43788 0 0 0
82 1 7.10955 7.85597 11.2505 0 0 0
83 2 6.44138 7.17505 11.2036 0 0 0
84 2 6.93353 8.54158 10.5442 0 0 0
85 1 11.2967 13.3757 11.8736 0 0 0
86 2 10.5619 4.11354 11.5626 0 0 0
87 2 4.47252 13.5566 10.9828 0 0 0
88 1 7.77047 12.9446 6.34925 0 0 0
89 2 7.22108 12.3013 5.88985 0 0 0
90 2 7.12189 13.2032 7.06373 0 0 0
91 1 6.51872 6.98006 6.53098 0 0 0
92 2 5.62615 7.26713 6.10979 0 0 0
93 2 6.39483 6.33825 7.30206 0 0 0
94 1 3.62977 13.5263 7.48474 0 0 0
95 2 3.30431 13.3604 8.37935 0 0 0
96 2 3.62983 4.95719 6.11369 0 0 0
