ITEM: TIMESTEP
0
ITEM: NUMBER OF ATOMS
96
ITEM: BOX BOUNDS pp pp pp
0.0000000000000000e+00 9.8499999999999996e+00
0.0000000000000000e+00 9.8499999999999996e+00
0.0000000000000000e+00 9.8499999999999996e+00
ITEM: ATOMS id type x y z vx vy vz
1 1 5.34992 3.84829 2.9377 0.00497217 -0.00339238 0.00313898
2 2 4.98614 2.985 3.12956 0.0256309 0.00977152 0.00369484
3 2 0.940354 4.25937 2.21908 0.0154259 0.0366586 -0.00100788
4 1 2.55217 0.460122 1.95579 -0.00460544 -0.00330944 -0.00211154
5 2 1.70162 0.844962 1.88627 -0.00365695 0.00851595 -0.00520106
6 2 2.46849 9.34323 2.22609 -0.011375 -0.00218538 -0.0150428
7 1 2.8569 7.65332 2.53641 0.00447619 0.00116991 0.00696594
8 2 2.39824 7.23203 3.33258 -0.0126565 0.0057385 -0.00856811
9 2 8.36191 8.82776 7.06117 0.000432995 -0.00896204 0.0193445
10 1 7.60723 9.43634 6.83608 0.00479262 0.0013207 -0.0012133
11 2 7.24394 8.27238 5.56636 -0.0115197 -0.0219522 0.00495202
12 2 6.85722 9.23724 7.56682 0.000116809 -0.0152959 -0.0204467
13 1 5.39635 8.44133 3.13067 -0.00572479 0.000405024 0.00249331
14 2 5.61669 8.36237 4.08493 -0.00881777 0.00720738 -0.00381374
15 2 5.91662 7.85285 2.5427 0.0017668 -0.00215009 -0.00378715
16 1 9.52533 7.81392 1.62529 -0.00325608 0.00251033 -0.0057486
17 2 0.100771 7.69987 2.53282 -0.0213554 -0.0325838 0.0185123
18 2 8.62171 7.46703 1.64637 -0.0372148 -0.0190748 0.0293372
19 1 4.16346 6.02271 9.44825 0.000134961 0.00406988 -0.000480477
20 2 3.16472 6.09246 9.55556 -0.0193873 0.0272711 0.0104832
21 2 3.54545 8.21637 9.30298 0.00456062 -0.00492288 0.00698682
22 1 9.64088 0.640726 1.87835 0.000884638 -0.00135591 0.000206894
23 2 9.55546 0.539688 2.79712 0.000483259 0.00296149 0.00281165
24 2 9.52 9.56697 1.60622 0.0197668 -0.0131287 0.0157606
25 1 3.89431 8.10787 6.23756 0.00655353 0.00520955 0.0028985
26 2 3.83463 8.52233 7.11408 0.0116615 -0.0180906 0.00147635
27 2 3.73852 6.18469 5.80703 -0.022466 -0.00137375 0.00108839
28 1 1.32124 7.61127 4.66546 -0.000751192 -0.00235548 -1.13651e-05
29 2 0.482832 7.10309 4.76353 0.0126874 -0.0107922 0.0142853
30 2 1.08793 8.57148 4.5661 -0.000874994 0.0198958 0.00161997
31 1 2.17874 1.59282 5.16043 0.00102269 -0.00390199 -0.00482564
32 2 1.8547 2.52256 4.90516 -0.00546759 -0.0109283 -0.0220482
33 2 3.06324 1.54755 4.81252 -0.0025162 -0.0165029 -0.0216818
34 1 8.07613 4.06686 1.92889 -0.00543167 0.000235011 -0.00208167
35 2 7.91139 3.46395 1.19789 -0.0193176 0.00587124 -0.0146142
36 2 7.25418 3.98143 2.43252 -0.000492166 -0.0185215 0.0176165
37 1 7.56715 1.73128 0.287295 -0.00328933 0.000533598 0.00246749
38 2 8.15298 1.96859 9.33703 -0.0251026 0.00981672 0.0218019
39 2 8.16919 1.26049 0.928378 -0.00459139 -0.0187039 0.00677799
40 1 1.41662 4.46396 4.25744 0.00256835 0.00633634 -0.00155171
41 2 2.19376 4.97028 4.61676 0.0225977 -0.0443356 0.00266886
42 2 0.564149 4.71304 4.66136 0.00647541 -0.00291806 0.0240976
43 1 4.03461 5.40118 5.31957 0.00137321 -0.00097909 -0.000427747
44 2 3.74539 8.00852 2.81756 0.00289863 0.0252104 0.00233657
45 2 4.8869 4.4963 3.39947 0.0135858 -0.0146344 -0.02144
46 1 0.0869663 2.41541 8.71841 0.00573497 0.00351254 -0.00236736
47 2 9.45075 2.8352 7.95691 -0.0058438 -0.00232273 0.0115217
48 2 0.67547 1.64327 8.37658 -0.0142848 -0.0229758 -0.0274043
49 1 1.33966 6.42048 9.80933 0.000279505 0.00960619 0.00316101
50 2 1.40624 5.51029 0.373609 0.0188157 0.0120714 0.000247811
51 2 0.990796 6.94652 0.707984 0.0418396 0.0157557 0.00720375
52 1 9.59411 9.77336 4.65466 -0.00113179 0.00406503 0.00279395
53 2 0.413725 0.521076 4.99688 0.0420929 -0.00410379 0.0248337
54 2 8.94875 9.69436 5.43077 0.00286215 -0.00546788 0.0124075
55 1 4.67615 1.27516 3.70202 -0.00714746 0.00499876 -0.00156756
56 2 5.32252 0.542693 3.61739 0.000798749 -0.00856164 -0.0177765
57 2 4.02491 1.03277 3.02187 -0.0112031 -0.00635384 0.0275356
58 1 6.35171 9.30128 9.29109 -0.00926516 -0.00807096 0.00260046
59 2 6.11918 0.603729 6.48411 0.00481452 -0.0591762 0.0131416
60 2 6.76995 0.367975 9.42807 -0.0263882 0.00116161 0.0135152
61 1 6.38392 5.43633 7.3533 -0.000849347 -0.00690321 0.00085195
62 2 6.46765 5.47457 8.29936 -0.0041129 -0.0144426 0.00585873
63 2 5.47322 5.03651 7.30528 -0.0058136 -0.0194991 -0.0311106
64 1 5.8302 1.56525 6.32652 0.00161872 0.00377745 -0.000687931
65 2 5.51338 1.57246 5.41638 -0.0176457 -0.000155911 0.00278487
66 2 4.85285 3.03101 7.0464 0.0181574 -0.0257447 -0.00795761
67 1 1.54334 0.450038 7.57376 0.00671585 -0.00402653 0.000464215
68 2 1.77704 0.828882 6.67488 -0.0072213 0.0230508 0.000492347
69 2 2.33031 0.104326 7.99761 -0.0323092 -0.00346819 -0.00817804
70 1 8.86389 5.71531 4.84076 -0.00109689 0.00340636 -0.00673746
71 2 8.50761 4.97774 5.32724 0.00649296 0.0100387 -8.22075e-05
72 2 8.07419 6.32904 4.67185 -0.0204874 -0.0145954 -0.00527581
73 1 9.82888 8.05063 7.67627 0.00028049 0.00417718 0.00417256
74 2 0.465895 7.53937 8.42242 0.0127798 -0.0149173 -0.00516226
75 2 0.717856 8.60856 7.38922 -0.00508324 0.00178797 0.0140119
76 1 3.97632 3.24347 0.256379 0.000284237 0.00116992 0.00102069
77 2 3.08695 3.28521 0.717125 -0.0026608 -0.0243973 0.00594088
78 2 4.35094 5.0424 9.34766 -0.0036687 -0.031902 -0.0177995
79 1 3.71086 9.16231 9.1132 0.00610322 0.00499214 -0.00284519
80 2 3.39109 9.56406 0.128366 -0.0325857 -0.00205454 0.0144501
81 2 5.40017 9.39088 9.25485 0.0393124 0.0130126 -0.0112948
82 1 6.56861 7.14975 1.19552 -0.00207848 6.69595e-07 0.003655
83 2 5.65705 6.68643 0.94858 0.014929 -0.0120208 0.00471821
84 2 6.5658 7.96548 0.550037 0.0210965 -0.000486492 0.00721113
85 1 1.14923 3.95555 1.39084 0.00431328 0.00289239 -0.00265013
86 2 0.321364 3.77484 1.0241 -0.00449809 -0.0119224 -0.0300089
87 2 4.52881 3.73581 0.758778 -0.0268625 -0.0267998 -0.0135801
88 1 8.01377 3.19949 6.67423 -0.00542451 -0.00305974 -0.000483221
89 2 7.3842 2.4895 6.40305 -0.00330692 -0.00982441 0.0130307
90 2 7.49603 4.06413 6.61911 0.00869991 -0.0484368 -0.0225818
91 1 6.87346 7.39164 5.4079 -0.00086482 0.00198857 -0.000831865
92 2 4.79409 7.89684 6.10728 0.0100357 0.00536293 0.020271
93 2 6.66754 6.81841 6.17182 -9.69866e-05 0.00474133 -0.0243875
94 1 4.19063 3.65932 7.40557 0.00314626 -0.00530394 -0.00154767
95 2 4.13638 3.3852 8.33981 -0.0142762 0.00443074 -0.00329674
96 2 4.22287 4.71826 5.99502 -0.00451062 0.0198783 -0.0209723
