ITEM: TIMESTEP
0
ITEM: NUMBER OF ATOMS
96
ITEM: BOX BOUNDS pp pp pp
2.9236100000000000e+00 1.2773600000000000e+01
4.0306300000000004e+00 1.3880599999999999e+01
2.1372399999999998e+00 1.1987200000000000e+01
ITEM: ATOMS id type x y z vx vy vz
1 1 5.11608 13.8775 2.82812 0.00123844 0.000472247 0.00112467
2 2 4.81574 13.0233 3.2409 0.00236128 0.00858939 0.00198324
3 2 11.3663 13.3313 3.13099 -0.00285482 -0.00953485 -0.00100881
4 1 12.6593 9.99653 11.8621 -0.00333936 0.00328024 0.00144209
5 2 11.6936 10.18 11.7235 0.00913223 0.0108363 0.00272005
6 2 12.644 9.13337 2.49589 0.00677788 0.012604 0.00797278
7 1 12.7615 7.34837 3.02374 4.09731e-05 0.00245308 -0.00295897
8 2 12.0814 6.65037 3.11761 0.00922119 -0.0111037 0.0136331
9 2 8.94047 8.95627 7.35289 0.00911286 -0.014442 -0.0206199
10 1 7.9968 9.15364 6.97118 -0.000739093 0.00607196 -0.00127785
11 2 7.31872 7.91808 6.8321 0.000365396 -0.0130588 -0.0237647
12 2 7.51148 9.56812 7.81463 0.0149398 -0.0173601 -0.0095724
13 1 6.58763 9.60626 4.02658 -0.000261007 -0.00581694 0.00546892
14 2 6.00222 9.04107 4.53732 0.00175647 -0.00484342 -0.0153152
15 2 7.02278 9.06121 3.34109 -0.0136907 -0.000724837 -0.00157636
16 1 9.69741 7.18204 10.8415 0.00242078 -0.00189772 -0.00294933
17 2 10.1793 6.80167 11.6059 0.00309057 -0.0276938 -0.00243264
18 2 8.82503 7.19083 11.1351 0.0131018 0.0103591 0.0235447
19 1 4.57663 6.69049 10.902 -0.00980891 -0.00348889 -0.00744455
20 2 3.88842 6.81074 11.6022 -0.0105693 0.00712508 0.00532101
21 2 4.38186 8.33414 9.57026 0.00141395 -0.00329202 0.0039684
22 1 10.0391 9.77272 11.1136 0.00102601 0.00380405 0.000308437
23 2 9.51856 9.68969 11.9418 -0.0259327 0.0130183 0.000612682
24 2 10.0153 8.89183 10.6725 -0.00477619 -0.00758113 0.00240966
25 1 4.37132 7.88574 5.35782 0.00265512 0.000547687 -0.00241126
26 2 3.86179 8.39567 5.97653 0.0132564 0.0193591 3.61174e-05
27 2 3.6982 6.121 5.24506 0.0133842 0.000101907 0.0111954
28 1 10.237 6.91809 3.82417 -0.000265433 -0.0056821 0.0038896
29 2 9.44367 6.40166 4.09665 -0.0159663 -0.000291841 -0.00702675
30 2 10.1983 7.86167 4.1485 -0.00224598 -0.00544864 0.0294791
31 1 11.6871 10.9242 5.23159 0.00157662 -0.00256545 -0.00359404
32 2 11.4762 11.9084 5.31935 -0.0192202 0.0290613 0.0165271
33 2 12.6397 10.9265 5.04208 0.00449156 -0.0270006 -0.00664348
34 1 7.45439 4.82317 10.7973 0.00673374 -0.00896322 0.00215003
35 2 8.04091 4.06326 10.7682 0.00821934 -0.0394416 0.0023367
36 2 6.7903 4.62046 11.4815 -0.0221504 -0.00441455 0.00833269
37 1 8.5761 12.1757 10.0667 0.000207114 0.001395 -0.00417223
38 2 9.06722 12.5663 9.30549 0.0459784 0.00376642 -0.0156156
39 2 9.04172 11.3484 10.4324 0.0144571 0.0078979 -0.0115854
40 1 10.7335 13.6664 4.76103 -0.000954136 -0.00701113 0.000931001
41 2 11.519 4.33222 5.03001 0.00461922 0.024315 0.0236415
42 2 10.0205 4.39769 4.77127 -0.0142582 0.00471545 0.0106391
43 1 3.51908 5.15837 5.09795 0.000668098 0.00808102 0.00274823
44 2 3.30859 7.421 3.92571 -0.0187401 0.0254702 1.50382e-05
45 2 4.92917 4.78175 3.40259 -0.012541 -0.00884913 -0.00044259
46 1 10.1163 13.026 8.0218 -0.00191666 -0.0058978 -0.00855789
47 2 9.47725 12.8605 7.25293 -0.00716771 -0.00505974 0.0102779
48 2 10.6821 12.2279 7.95482 -0.0192964 -0.0015113 -0.0151061
49 1 10.851 5.84797 8.46682 0.00382424 -0.00257338 0.0023124
50 2 10.6213 5.0057 7.98104 -0.0180778 -0.0298249 -0.00532167
51 2 10.1783 5.89992 9.15735 -0.00294218 0.0159871 0.00646867
52 1 9.4458 9.39831 4.05599 -0.00202775 0.00492798 0.00179152
53 2 10.0313 9.99077 4.53919 0.00836859 0.0126055 0.0319509
54 2 8.54808 9.50117 4.38497 -0.00394532 -0.0155966 0.0503459
55 1 4.53536 11.2975 3.61312 0.00169495 -0.00296453 0.00366455
56 2 5.3215 10.7151 3.52411 0.00635953 -0.0152485 0.00869281
57 2 3.87785 10.9851 2.9094 -0.0231239 0.0110718 0.0136085
58 1 6.83466 9.99197 9.35634 0.00470983 0.00175637 -0.00536356
59 2 5.34676 10.7096 6.92552 0.0152263 0.0213473 0.0161371
60 2 7.12896 10.9135 9.38583 -0.0300737 -0.00933092 -0.00832073
61 1 6.10661 4.92739 8.35051 0.00385346 -0.00760866 0.000643863
62 2 6.54719 4.95616 9.25318 -0.000140161 0.00807572 0.0216204
63 2 5.16036 4.64892 8.54232 0.021616 -0.00150581 -0.0099127
64 1 4.9514 11.3796 6.42956 -0.00366344 0.0039709 0.00129888
65 2 5.20489 11.2506 5.49334 -0.0242945 0.00821932 -0.0109688
66 2 4.13929 12.8237 7.31819 -0.011772 0.0448374 0.0248631
67 1 11.6546 10.4555 7.90356 -0.00583945 0.00835315 0.00371994
68 2 11.859 10.7112 6.96648 0.0283386 -0.00719819 0.00577337
69 2 12.5502 10.2972 8.26222 -0.0145938 -0.0152387 -0.0157951
70 1 8.14169 5.40694 4.55032 -0.00350817 0.0012693 -0.00317089
71 2 8.07118 4.5926 4.99794 -0.0151543 -0.0128792 0.00908795
72 2 7.67642 6.07361 5.10642 -0.00966618 0.0102975 0.00793505
73 1 10.4488 8.27074 7.17007 0.000681203 -0.000221004 0.00467332
74 2 10.423 7.50234 7.86769 -0.00589932 0.00422098 -0.00909484
75 2 10.8007 9.10351 7.58967 0.0124824 -0.00525692 -0.0128603
76 1 3.70496 13.8079 10.3187 -0.00249341 0.00737683 0.00117157
77 2 12.6989 13.5617 10.768 0.0383908 -0.0205976 -0.0266006
78 2 4.51097 5.70794 10.706 0.0124717 -0.0172892 -0.0304399
79 1 4.2346 9.20668 9.27872 0.00206862 -0.000204144 0.000695244
80 2 3.56802 9.5276 9.9415 0.00474158 -0.0137591 -0.0123186
81 2 5.87925 10.0134 9.32812 -0.0199221 -0.0026045 -0.00907527
82 1 7.0015 8.06154 11.407 0.00469581 -0.00213015 -0.00355136
83 2 6.30112 7.43159 11.2507 -0.0026489 0.00891364 -0.00689423
84 2 6.97185 8.79465 10.7453 -0.00943025 0.0254979 0.00345169
85 1 11.1332 13.427 2.14099 0.00738699 -0.00290921 -0.0032094
86 2 10.1991 13.5694 2.1502 -0.02041 0.0185246 -0.000828544
87 2 4.35629 13.6659 10.9939 0.00525553 0.0296568 0.0229189
88 1 7.67461 13.0896 6.38441 -0.00854692 -0.00287121 -0.00158412
89 2 7.40513 12.217 6.12385 0.0150071 0.0149572 -0.0112737
90 2 6.98775 13.4083 6.9666 0.0264212 -0.0200749 0.00336866
91 1 6.5788 7.00949 6.47036 -0.00184296 0.00317499 0.00281933
92 2 5.10906 7.42439 5.93885 -0.00385789 0.012175 0.0139092
93 2 6.51903 6.39258 7.23997 0.00536615 -0.0242422 -0.0323616
94 1 3.78397 13.6823 7.70171 0.00155185 0.00492088 0.00529079
95 2 3.08223 13.6092 8.36869 -0.0116547 -0.00629512 -0.00303158
96 2 3.6382 4.80009 5.97371 0.0122903 0.0100641 -0.0138772
ITEM: TIMESTEP
1
ITEM: NUMBER OF ATOMS
96
ITEM: BOX BOUNDS pp pp pp
2.9236100000000000e+00 1.2773600000000000e+01
4.0306300000000004e+00 1.3880599999999999e+01
2.1372399999999998e+00 1.1987200000000000e+01
ITEM: ATOMS id type x y z vx vy vz
1 1 5.11675 13.8777 2.82863 0.00143387 0.000464935 0.000909587
2 2 4.81699 13.0283 3.24225 0.00256367 0.0109642 0.00346014
3 2 11.3643 13.3268 3.12896 -0.00528695 -0.00849496 -0.00708234
4 1 12.6576 9.99814 11.8628 -0.00341596 0.00316573 0.00142798
5 2 11.6982 10.1856 11.7246 0.00875909 0.0116696 0.00152157
6 2 12.6478 9.13987 2.49966 0.00829911 0.0132324 0.00716104
7 1 12.7615 7.34959 3.02229 -7.03906e-05 0.00242948 -0.00283896
8 2 12.0856 6.64525 3.12468 0.00778542 -0.00928908 0.0144945
9 2 8.94537 8.94806 7.34174 0.0103008 -0.018199 -0.0239094
10 1 7.99642 9.15685 6.97067 -0.000744347 0.00673216 -0.00079011
11 2 7.31651 7.90848 6.81929 -0.00911167 -0.0251719 -0.0271828
12 2 7.51911 9.5587 7.80892 0.0153828 -0.0200343 -0.0128234
13 1 6.58753 9.6034 4.02931 -0.000116596 -0.0055941 0.00544553
14 2 6.00319 9.03789 4.52941 0.00173457 -0.00814351 -0.015973
15 2 7.01507 9.06051 3.34042 -0.0169603 -0.00212543 -0.00132409
16 1 9.69876 7.18104 10.84 0.00299556 -0.00211722 -0.00311633
17 2 10.1807 6.78829 11.6047 0.00264316 -0.0256455 -0.00260892
18 2 8.82922 7.19618 11.1474 0.00376785 0.0111282 0.02556
19 1 4.57174 6.68864 10.8982 -0.00974618 -0.00393558 -0.00763459
20 2 3.88327 6.8148 11.605 -0.00969485 0.00858627 0.00538976
21 2 4.38287 8.33117 9.57279 0.00263659 -0.0083889 0.00603972
22 1 10.0396 9.77471 11.1138 0.000920548 0.00412852 0.000355024
23 2 9.50602 9.69587 11.942 -0.0238527 0.0117298 -0.000238649
24 2 10.0128 8.88753 10.674 -0.0050731 -0.00923434 0.00377781
25 1 4.37267 7.88599 5.35663 0.00273556 0.000468518 -0.00232794
26 2 3.86804 8.40565 5.97679 0.0118001 0.0204706 0.000737867
27 2 3.70476 6.12048 5.25012 0.0128809 -0.00181784 0.00897474
28 1 10.237 6.91522 3.82607 6.81418e-05 -0.00577098 0.00374664
29 2 9.4357 6.40212 4.09333 -0.0157233 0.00216144 -0.00635359
30 2 10.1965 7.8583 4.16325 -0.00502453 -0.0081748 0.0292666
31 1 11.6879 10.923 5.22982 0.00159461 -0.00209361 -0.00347078
32 2 11.4669 11.9213 5.32709 -0.017633 0.0214038 0.0142184
33 2 12.6416 10.9132 5.03858 0.00292966 -0.0258529 -0.00729458
34 1 7.45772 4.81872 10.7984 0.00658439 -0.00888647 0.00220238
35 2 8.04493 4.04294 10.7693 0.00712218 -0.0410429 0.00194836
36 2 6.77947 4.6181 11.4855 -0.0204709 -0.00488844 0.00700607
37 1 8.57617 12.1763 10.0647 0.000146781 0.00108924 -0.00389708
38 2 9.0909 12.5676 9.29774 0.0479616 0.0012553 -0.0145303
39 2 9.04872 11.354 10.4254 0.0134305 0.0143411 -0.0161373
40 1 10.7331 13.6628 4.76151 -0.000471242 -0.00736053 0.00102927
41 2 11.5211 4.34472 5.0417 0.00298611 0.0249523 0.0227389
42 2 10.0122 4.40153 4.77654 -0.0182449 0.0098813 0.0104021
43 1 3.51942 5.16248 5.09933 0.000666841 0.00836365 0.00273576
44 2 3.29943 7.43375 3.92548 -0.0177371 0.0255759 -0.000808398
45 2 4.92232 4.77636 3.40288 -0.0148844 -0.0123566 0.00172647
46 1 10.1153 13.023 8.01742 -0.00207697 -0.00614069 -0.00894802
47 2 9.47421 12.8587 7.25921 -0.00539808 -0.0021877 0.0143359
48 2 10.6723 12.2275 7.94761 -0.0192667 -0.000460188 -0.0137256
49 1 10.8529 5.84666 8.46793 0.00359748 -0.00274247 0.00211003
50 2 10.6125 4.99169 7.97915 -0.0166738 -0.0251801 -0.00161764
51 2 10.1772 5.90806 9.16077 -0.00128764 0.0164931 0.00685687
52 1 9.4448 9.40078 4.05681 -0.00198198 0.00498509 0.00156595
53 2 10.0355 9.99732 4.55567 0.00768427 0.0128701 0.0333235
54 2 8.546 9.49367 4.41082 -0.00363875 -0.0145551 0.0526578
55 1 4.53616 11.296 3.61493 0.00153104 -0.00285182 0.00359756
56 2 5.3251 10.7073 3.52842 0.00749825 -0.0159093 0.00840073
57 2 3.8664 10.9906 2.91658 -0.0222682 0.0109994 0.0152295
58 1 6.83712 9.99283 9.35362 0.005018 0.00165008 -0.00552759
59 2 5.35515 10.7191 6.93389 0.0182522 0.016845 0.0169875
60 2 7.11432 10.9094 9.38211 -0.0281431 -0.00646866 -0.00656484
61 1 6.10853 4.92359 8.3509 0.00387519 -0.00757886 0.000944959
62 2 6.54711 4.96017 9.26339 -0.000319636 0.00788847 0.0187803
63 2 5.17167 4.64814 8.53668 0.0229223 -0.00176633 -0.0124069
64 1 4.94952 11.3817 6.43017 -0.00386391 0.00433551 0.0011302
65 2 5.19258 11.2544 5.48849 -0.0248764 0.00689423 -0.00811766
66 2 4.13238 12.8467 7.33175 -0.0152627 0.0457749 0.0286733
67 1 11.6518 10.4598 7.90546 -0.00555023 0.0087326 0.00384238
68 2 11.8727 10.7075 6.96857 0.0261164 -0.0073879 0.0025683
69 2 12.5427 10.289 8.25479 -0.0149268 -0.0175319 -0.013435
70 1 8.13992 5.40768 4.54868 -0.00361422 0.00164629 -0.00333533
71 2 8.06327 4.58467 5.00372 -0.0164136 -0.0178799 0.0135215
72 2 7.67131 6.07839 5.11064 -0.0104426 0.00837446 0.0085544
73 1 10.4491 8.27048 7.17246 0.000326576 -0.000796235 0.00484211
74 2 10.4207 7.50587 7.86185 -0.00319349 0.00944981 -0.0137399
75 2 10.8074 9.10042 7.58374 0.0144624 -0.00677384 -0.01064
76 1 3.7036 13.8116 10.3193 -0.00282115 0.00733574 0.00110789
77 2 12.7186 13.5518 10.7543 0.0390377 -0.0192411 -0.0276239
78 2 4.51738 5.7005 10.6907 0.0128277 -0.0117703 -0.030366
79 1 4.23554 9.20669 9.27907 0.00174006 0.000197472 0.00069252
80 2 3.57127 9.52045 9.93489 0.00783289 -0.0145293 -0.0137191
81 2 5.86772 10.012 9.32345 -0.0252029 -0.00329365 -0.00954517
82 1 7.00392 8.06053 11.4053 0.00499011 -0.0018872 -0.0033763
83 2 6.29894 7.43598 11.2466 -0.00602314 0.00868846 -0.00926781
84 2 6.96671 8.80657 10.7472 -0.0110445 0.0217529 0.0043835
85 1 11.137 13.4255 2.13947 0.00755393 -0.0029535 -0.00286477
86 2 10.1885 13.5787 2.14962 -0.0205945 0.0183848 -0.00151031
87 2 4.35985 13.6806 11.0063 0.00859416 0.0292508 0.0261848
88 1 7.6704 13.0882 6.3836 -0.00822743 -0.00281161 -0.00169935
89 2 7.4121 12.2244 6.1184 0.0125322 0.013812 -0.0107399
90 2 7.00067 13.3983 6.96845 0.0243179 -0.0197031 0.00478364
91 1 6.578 7.01111 6.47187 -0.00133922 0.00331337 0.00315549
92 2 5.10725 7.43081 5.94546 -0.00348729 0.013482 0.0123296
93 2 6.52165 6.38118 7.223 0.0052206 -0.021538 -0.0348951
94 1 3.78478 13.6848 7.70427 0.00163115 0.0050764 0.00499366
95 2 3.07727 13.6052 8.36715 -0.00819033 -0.00969531 -0.00315323
96 2 3.64441 4.80444 5.96729 0.0125784 0.00699264 -0.0112943
ITEM: TIMESTEP
2
ITEM: NUMBER OF ATOMS
96
ITEM: BOX BOUNDS pp pp pp
2.9236100000000000e+00 1.2773600000000000e+01
4.0306300000000004e+00 1.3880599999999999e+01
2.1372399999999998e+00 1.1987200000000000e+01
ITEM: ATOMS id type x y z vx vy vz
1 1 5.11751 13.878 2.82903 0.00164398 0.000466474 0.00067381
2 2 4.8183 13.0343 3.24436 0.00260236 0.0125655 0.00502976
3 2 11.361 13.3228 3.12391 -0.00759828 -0.00742848 -0.0128579
4 1 12.6559 9.9997 11.8635 -0.00341452 0.00308995 0.00140918
5 2 11.7024 10.1917 11.725 0.00754063 0.0123697 0.000363471
6 2 12.6523 9.1466 2.50305 0.0094557 0.013484 0.00648931
7 1 12.7614 7.3508 3.0209 -0.000211704 0.00238716 -0.00271392
8 2 12.0892 6.64108 3.1321 0.00647522 -0.00729968 0.0150881
9 2 8.95077 8.93807 7.32898 0.0109525 -0.0214574 -0.0270243
10 1 7.99606 9.16037 6.97039 -0.000702467 0.00730776 -0.000388503
11 2 7.30961 7.89291 6.80492 -0.0181572 -0.0365478 -0.0299932
12 2 7.52686 9.54809 7.80181 0.0154647 -0.0221471 -0.0150869
13 1 6.58751 9.60067 4.03203 4.66051e-05 -0.00533751 0.00540913
14 2 6.00395 9.03293 4.52135 0.000998332 -0.0118573 -0.0159182
15 2 7.00582 9.05908 3.33977 -0.0197841 -0.00358644 -0.00152117
16 1 9.70041 7.17992 10.8384 0.00353405 -0.00236097 -0.00321502
17 2 10.1819 6.77602 11.6033 0.00207699 -0.0232079 -0.00348319
18 2 8.8288 7.20196 11.1607 -0.00487989 0.0120466 0.0271393
19 1 4.56688 6.68655 10.8944 -0.00967265 -0.00438806 -0.007826
20 2 3.87873 6.81933 11.6076 -0.00820037 0.00905165 0.00459798
21 2 4.3845 8.32575 9.5763 0.00384484 -0.0128719 0.00779805
22 1 10.04 9.77685 11.114 0.000770153 0.00438993 0.000429053
23 2 9.49471 9.70142 11.9416 -0.021101 0.0105304 -0.00188172
24 2 10.0102 8.8826 10.6763 -0.00532325 -0.010096 0.00558673
25 1 4.37406 7.88621 5.35549 0.00279915 0.000421315 -0.00219126
26 2 3.87359 8.41614 5.97727 0.0105357 0.0213225 0.000848106
27 2 3.71108 6.11918 5.25403 0.0124181 -0.00297981 0.00665652
28 1 10.2371 6.91232 3.82792 0.000362821 -0.00581579 0.00364324
29 2 9.42795 6.40382 4.0903 -0.015126 0.00456621 -0.00585517
30 2 10.1933 7.8535 4.17777 -0.00776394 -0.011066 0.0285493
31 1 11.6887 10.9221 5.22812 0.00157134 -0.00154649 -0.00333251
32 2 11.4586 11.9298 5.33357 -0.0150633 0.0119683 0.0114964
33 2 12.6426 10.9006 5.03479 0.000919091 -0.0240322 -0.0078422
34 1 7.46097 4.81428 10.7995 0.00643075 -0.0089368 0.00231162
35 2 8.04803 13.8722 10.7701 0.00465222 -0.0410465 0.00158118
36 2 6.76983 4.61557 11.4885 -0.01746 -0.00512559 0.00449376
37 1 8.57625 12.1768 10.0628 0.000189033 0.000858124 -0.00374759
38 2 9.11518 12.5676 9.29096 0.0483859 -0.00164933 -0.0118941
39 2 9.05515 11.3627 10.4163 0.0122376 0.0202251 -0.0200719
40 1 10.733 13.659 4.76206 7.48889e-06 -0.00752163 0.00117502
41 2 11.522 4.35717 5.05275 -0.000137715 0.0241572 0.0210982
42 2 10.0023 4.40757 4.78167 -0.0205795 0.0133648 0.0100621
43 1 3.51975 5.16673 5.10069 0.000649483 0.00862862 0.00266908
44 2 3.29085 7.44658 3.9249 -0.0164055 0.0257382 -0.00141059
45 2 4.91429 4.76939 3.40432 -0.0172521 -0.015114 0.00410161
46 1 10.1142 13.0199 8.01285 -0.00223582 -0.00629921 -0.00926278
47 2 9.47185 12.8583 7.26727 -0.00451046 0.000511406 0.017262
48 2 10.6628 12.2274 7.94109 -0.0182607 -0.000574682 -0.0123949
49 1 10.8546 5.84523 8.46893 0.00330017 -0.00301763 0.00188101
50 2 10.6046 4.98052 7.97942 -0.0147339 -0.0186784 0.00316522
51 2 10.177 5.91641 9.16421 0.000956633 0.0168559 0.00659823
52 1 9.44382 9.4033 4.05756 -0.00194627 0.00512213 0.00147988
53 2 10.039 10.0036 4.57251 0.0059183 0.0116886 0.0333479
54 2 8.54444 9.48661 4.43763 -0.00186205 -0.0138098 0.0540766
55 1 4.53689 11.2946 3.61672 0.00139066 -0.00276351 0.0035378
56 2 5.329 10.6992 3.53251 0.00751731 -0.0161435 0.00782445
57 2 3.85558 10.9961 2.92463 -0.0206581 0.0106784 0.0170383
58 1 6.83968 9.99362 9.35081 0.00513 0.00149373 -0.00567797
59 2 5.36501 10.7264 6.94251 0.0210125 0.0129734 0.0170246
60 2 7.10082 10.907 9.37927 -0.0255836 -0.00258606 -0.00480191
61 1 6.11049 4.91981 8.35145 0.00402441 -0.00751228 0.00128717
62 2 6.54687 4.96405 9.27196 -0.000726129 0.00756001 0.0152051
63 2 5.18328 4.64715 8.52991 0.0227681 -0.00236516 -0.0144184
64 1 4.94754 11.3839 6.43069 -0.00405316 0.00466379 0.000974718
65 2 5.18001 11.2575 5.48522 -0.0253285 0.00539963 -0.00477163
66 2 4.12403 12.8695 7.34686 -0.0174034 0.0434342 0.0309621
67 1 11.649 10.4642 7.9074 -0.00525672 0.00910159 0.0038977
68 2 11.8851 10.7038 6.96905 0.0232331 -0.00742831 -0.000544904
69 2 12.5353 10.2797 8.24879 -0.01473 -0.0199792 -0.0101454
70 1 8.13808 5.40859 4.54698 -0.00377065 0.00194339 -0.00337025
71 2 8.05477 4.57472 5.01146 -0.017482 -0.0208319 0.0167807
72 2 7.66598 6.08198 5.11497 -0.0105813 0.0056015 0.00836087
73 1 10.4491 8.26994 7.17491 -3.14424e-05 -0.00133919 0.00490779
74 2 10.4198 7.51179 7.85395 -0.000464197 0.0135967 -0.0171885
75 2 10.8152 9.09674 7.57903 0.0167279 -0.00761102 -0.00802398
76 1 3.70214 13.8152 10.3198 -0.00289938 0.00732566 0.00103308
77 2 12.7379 13.5425 10.7404 0.0367592 -0.0186394 -0.0273098
78 2 4.5238 5.69617 10.6756 0.012481 -0.00511136 -0.0294126
79 1 4.23634 9.20688 9.27941 0.00148221 0.000521951 0.000649673
80 2 3.57585 9.51307 9.92778 0.00997362 -0.0146691 -0.0142286
81 2 5.85405 10.0101 9.31857 -0.0282859 -0.00439129 -0.00991037
82 1 7.00649 8.05965 11.4036 0.00525491 -0.00160597 -0.00325654
83 2 6.2951 7.44028 11.2414 -0.00918084 0.00861122 -0.0115063
84 2 6.96081 8.8164 10.7497 -0.012473 0.0172893 0.00590243
85 1 11.1408 13.424 2.13813 0.00754762 -0.00297364 -0.00252514
86 2 10.1785 13.5878 2.14869 -0.0182356 0.0178405 -0.0022487
87 2 4.36488 13.6952 11.0201 0.011009 0.0290887 0.0283509
88 1 7.66638 13.0868 6.38271 -0.00775972 -0.00267928 -0.00188775
89 2 7.41766 12.2308 6.11311 0.00942893 0.0109711 -0.0106341
90 2 7.01207 13.3886 6.97138 0.0204432 -0.0187408 0.00762096
91 1 6.57746 7.0128 6.47352 -0.000840744 0.0034615 0.00337861
92 2 5.10557 7.43787 5.95118 -0.0033719 0.014749 0.0103764
93 2 6.52425 6.37104 7.20507 0.00518325 -0.0194079 -0.0360448
94 1 3.7856 13.6874 7.7067 0.00161229 0.00541764 0.00478253
95 2 3.07404 13.5995 8.36554 -0.00481222 -0.0128587 -0.00323807
96 2 3.65078 4.80708 5.96242 0.0129456 0.0033759 -0.00786414
ITEM: TIMESTEP
3
ITEM: NUMBER OF ATOMS
96
ITEM: BOX BOUNDS pp pp pp
2.9236100000000000e+00 1.2773600000000000e+01
4.0306300000000004e+00 1.3880599999999999e+01
2.1372399999999998e+00 1.1987200000000000e+01
ITEM: ATOMS id type x y z vx vy vz
1 1 5.11839 13.8782 2.82931 0.00186498 0.000478722 0.000420364
2 2 4.81959 13.0408 3.24728 0.00248339 0.0132797 0.00664727
3 2 11.3567 13.3194 3.11611 -0.00959331 -0.00641866 -0.0178199
4 1 12.6542 10.0012 11.8642 -0.00334127 0.00305625 0.00138241
5 2 11.7057 10.198 11.7249 0.00558551 0.012879 -0.00072535
6 2 12.6573 9.15336 2.50615 0.0102155 0.0133395 0.00597071
7 1 12.7613 7.35198 3.01958 -0.000380024 0.00232876 -0.00258238
8 2 12.0921 6.63795 3.13976 0.00528767 -0.00515747 0.0154257
9 2 8.95633 8.9266 7.31471 0.0108376 -0.0240763 -0.029942
10 1 7.99572 9.16416 6.97028 -0.000613924 0.00777449 -8.3543e-05
11 2 7.29835 7.87193 6.7893 -0.0263338 -0.0466117 -0.0320869
12 2 7.53457 9.53656 7.79383 0.0152087 -0.0236451 -0.0162176
13 1 6.58758 9.59806 4.03472 0.000216927 -0.00506275 0.00536634
14 2 6.00419 9.02603 4.51349 -0.000333037 -0.0157844 -0.015236
15 2 6.99528 9.05692 3.3389 -0.0221154 -0.00503716 -0.0021828
16 1 9.7023 7.17868 10.8368 0.0039826 -0.00262181 -0.00323282
17 2 10.1828 6.76508 11.6012 0.00138353 -0.0204178 -0.00495436
18 2 8.82434 7.20823 11.1746 -0.0120241 0.0130675 0.0280006
19 1 4.56207 6.68425 10.8904 -0.00958254 -0.00481594 -0.00801849
20 2 3.87507 6.82385 11.6096 -0.00620532 0.00860382 0.00307229
21 2 4.38671 8.3183 9.58059 0.00496573 -0.01633 0.00911329
22 1 10.0404 9.7791 11.1142 0.00058142 0.00458591 0.000521632
23 2 9.48492 9.7064 11.9401 -0.0177908 0.00945809 -0.00410531
24 2 10.0075 8.87743 10.6796 -0.00548679 -0.0101894 0.00776368
25 1 4.37547 7.88641 5.35444 0.00284036 0.00041164 -0.00200255
26 2 3.87857 8.42698 5.97764 0.00954086 0.0218234 0.000324258
27 2 3.71718 6.1175 5.25678 0.0120357 -0.00331316 0.00433902
28 1 10.2373 6.9094 3.82972 0.000618555 -0.00582434 0.0035768
29 2 9.42057 6.40669 4.08747 -0.0142756 0.0067706 -0.0055319
30 2 10.1887 7.84723 4.1918 -0.010352 -0.0139072 0.0273663
31 1 11.6895 10.9215 5.22649 0.00150902 -0.000968929 -0.00318005
32 2 11.4518 11.9333 5.33859 -0.0117457 0.00155113 0.00844137
33 2 12.6425 10.8892 5.03074 -0.00131679 -0.0216193 -0.00832197
34 1 7.46415 4.80979 10.8007 0.00627761 -0.0091043 0.00246598
35 2 8.04958 13.8519 10.7708 0.000995641 -0.0395434 0.00120753
36 2 6.76201 4.61298 11.49 -0.0133483 -0.00516039 0.00103902
37 1 8.57636 12.1772 10.061 0.00032003 0.000715243 -0.00372432
38 2 9.13928 12.566 9.28585 0.0472659 -0.00470362 -0.00799935
39 2 9.06096 11.3742 10.4053 0.011042 0.0250695 -0.0230895
40 1 10.7331 13.6553 4.76269 0.000449332 -0.00748549 0.00136972
41 2 11.521 4.36888 5.0628 -0.00448248 0.0220109 0.0187755
42 2 9.99161 4.4149 4.7866 -0.0210619 0.0149564 0.00958154
43 1 3.52007 5.17111 5.102 0.000617134 0.00885704 0.00256634
44 2 3.28302 7.45949 3.92407 -0.014786 0.0259559 -0.00181788
45 2 4.90507 4.76125 3.40699 -0.0196235 -0.0170309 0.00663253
46 1 10.1131 13.0167 8.00815 -0.00237947 -0.00637052 -0.00948759
47 2 9.4697 12.8592 7.27647 -0.00466243 0.00294519 0.0188735
48 2 10.6541 12.227 7.93522 -0.0163369 -0.00185982 -0.0111769
49 1 10.8562 5.84364 8.46981 0.00295056 -0.00336624 0.00164065
50 2 10.5978 4.97301 7.98231 -0.0123795 -0.010861 0.0086637
51 2 10.1781 5.92491 9.16737 0.00365541 0.0170877 0.00582739
52 1 9.44285 9.4059 4.05829 -0.00192831 0.00533296 0.00154041
53 2 10.0414 10.009 4.58902 0.00322763 0.00918212 0.0320334
54 2 8.54414 9.47986 4.4649 0.00130021 -0.0133484 0.0544815
55 1 4.53755 11.2933 3.61847 0.00127959 -0.0027014 0.00348856
56 2 5.33262 10.6911 3.53625 0.00646615 -0.0159359 0.00701987
57 2 3.84574 11.0013 2.93362 -0.0184129 0.0101 0.0189388
58 1 6.84225 9.99432 9.34794 0.00503976 0.00130937 -0.0058147
59 2 5.37616 10.7321 6.95091 0.0232886 0.00999778 0.0160878
60 2 7.08873 10.9068 9.3773 -0.0225732 0.00191296 -0.0030467
61 1 6.11255 4.91608 8.35219 0.00429887 -0.0074081 0.00165118
62 2 6.54638 4.96773 9.27859 -0.00128934 0.00708206 0.0111307
63 2 5.19444 4.64578 8.52227 0.0211119 -0.00331741 -0.0159052
64 1 4.94546 11.3863 6.43114 -0.0042188 0.00493614 0.000856539
65 2 5.16726 11.2598 5.48372 -0.0256102 0.00375725 -0.0011674
66 2 4.11497 12.8902 7.36272 -0.0180353 0.0376477 0.031609
67 1 11.6465 10.4689 7.90936 -0.00495531 0.00945518 0.00387985
68 2 11.8959 10.7001 6.96803 0.0197562 -0.00737324 -0.0032984
69 2 12.528 10.2691 8.24464 -0.0141471 -0.0225125 -0.00612859
70 1 8.13615 5.40962 4.54531 -0.00397623 0.00213879 -0.00326829
71 2 8.04579 4.56384 5.02051 -0.0182972 -0.0215351 0.0186989
72 2 7.66073 6.08399 5.119 -0.0101108 0.00209688 0.00736883
73 1 10.449 8.26914 7.17737 -0.00038214 -0.00182452 0.00485736
74 2 10.4203 7.51946 7.84466 0.00221091 0.0163091 -0.0191733
75 2 10.8241 9.09281 7.57572 0.0192719 -0.00773552 -0.00508425
76 1 3.7007 13.8189 10.3203 -0.0027215 0.00735256 0.000963714
77 2 12.7554 13.5332 10.727 0.0317005 -0.018901 -0.0257061
78 2 4.52986 5.69539 10.6613 0.0114603 0.00212736 -0.0277313
79 1 4.23703 9.20721 9.27972 0.00131132 0.000741667 0.000566684
80 2 3.58124 9.50578 9.92066 0.0110244 -0.0141281 -0.0137076
81 2 5.83943 10.0076 9.31354 -0.0289397 -0.00586612 -0.0101465
82 1 7.00918 8.05892 11.402 0.00547666 -0.00131168 -0.00318566
83 2 6.28976 7.44459 11.2351 -0.011917 0.00876296 -0.0135044
84 2 6.95424 8.82386 10.7531 -0.0136507 0.0124049 0.00778343
85 1 11.1445 13.4226 11.9869 0.00738061 -0.00296682 -0.00222374
86 2 10.1703 13.5965 2.14737 -0.0137017 0.0169166 -0.00308337
87 2 4.37086 13.7097 11.0347 0.0122576 0.0291808 0.029252
88 1 7.66264 13.0855 6.38171 -0.0071765 -0.00248278 -0.002138
89 2 7.42153 12.2354 6.10777 0.0058409 0.00672323 -0.0109081
90 2 7.02112 13.3795 6.97607 0.0151693 -0.0173163 0.011653
91 1 6.57716 7.01457 6.47525 -0.000358873 0.00361499 0.00347847
92 2 5.10387 7.44556 5.95583 -0.00363626 0.0160059 0.00806486
93 2 6.52684 6.36177 7.18695 0.00522509 -0.0181268 -0.0356668
94 1 3.78639 13.6902 7.70905 0.00149403 0.0059525 0.00465523
95 2 3.07246 13.5923 8.36391 -0.00167961 -0.0157096 -0.00314037
96 2 3.65735 4.80781 5.95943 0.0133569 -0.000556737 -0.00395015
