ITEM: TIMESTEP
0
ITEM: NUMBER OF ATOMS
1151
ITEM: BOX BOUNDS pp pp pp
1.6762900000000000e-01 2.2849499999999999e+01
-2.0329000000000000e-01 2.2478600000000000e+01
8.2643499999999995e-02 2.2764500000000002e+01
ITEM: ATOMS id type x y z vx vy vz 
168 3 2.4887 -0.0492173 3.58519 0.00234614 0.00349479 0.00600171 
170 4 2.81499 0.259385 2.73989 -0.0124419 -0.0200161 -0.0198331 
212 4 4.53024 4.95862 2.17983 -0.0200075 -0.0148167 0.00797313 
411 3 5.7603 1.48935 5.43796 0.00274072 -0.000372923 0.0010474 
628 4 0.79314 5.10143 5.62256 0.00155541 -0.0113567 -0.010106 
716 4 5.08569 0.762284 2.34772 0.00311043 0.0107132 0.0117148 
866 4 3.61115 3.79565 5.27345 -0.0235632 0.0141131 -0.00612808 
872 4 3.10003 0.302309 5.35714 0.00873952 0.0100122 0.0177509 
879 3 3.37962 3.19095 3.52687 -0.00426269 -0.0042907 0.0034696 
880 4 2.46093 3.44261 3.43242 0.0123618 0.0140255 0.0268058 
881 4 3.55716 2.64012 2.76445 0.0390573 -0.0242489 -0.0100851 
987 3 0.501148 2.93958 3.25479 0.00371683 0.00245084 -0.000521257 
988 4 0.375693 2.10337 2.80618 -0.0152597 -0.00888647 -0.0076861 
1137 3 3.39596 0.975261 1.01265 -0.00125356 0.00390366 -0.00730756 
1138 4 2.76379 1.64724 0.757613 -0.0161744 0.029507 -0.0177107 
1139 4 3.74308 0.645417 0.183829 0.00469697 0.012784 0.00705821 
1142 4 1.19523 2.47222 5.21806 0.00990543 0.00726766 0.0148986 
136 4 10.9563 2.77777 0.200119 0.0152353 0.00218955 -0.00960405 
357 3 6.23751 4.15131 4.33727 0.00211654 -0.00283411 0.00400807 
358 4 7.10498 3.89656 4.02287 0.00268815 -0.00695761 -0.0106022 
359 4 5.8947 3.36393 4.76006 -0.00965663 -0.00909657 -0.0011338 
413 4 6.34824 0.791467 5.72697 -0.00712919 -0.0234473 0.00568655 
594 3 8.82017 4.18065 3.35809 -0.000148393 -0.00065973 0.00225704 
595 4 8.98178 4.16343 2.41479 0.0263747 0.0201904 0.00358533 
596 4 9.62098 4.54811 3.73211 -0.00781046 0.00933867 0.0165026 
645 3 9.62643 1.05198 4.2388 -0.00339971 -0.00335784 0.00272885 
646 4 9.04155 0.541505 3.67884 0.010185 0.00997537 0.000149391 
647 4 10.2921 1.3939 3.64201 -0.032665 0.00511643 0.0105586 
714 3 5.95366 1.13546 2.50135 0.00236116 0.00179781 -0.00330696 
715 4 6.0183 1.20866 3.45356 -0.000371618 0.0256752 0.000551023 
773 4 6.47832 2.13367 0.60844 -0.00101873 0.0233013 0.000242614 
852 3 9.2472 4.08023 0.899584 -0.00514744 0.00186689 -0.00814374 
853 4 8.43082 3.65228 0.641479 -0.0121395 -0.00832474 0.00666071 
854 4 9.15732 4.97919 0.583311 -0.00496776 0.0148405 0.00806841 
933 3 9.91905 1.48296 1.34638 -0.00018106 0.00438733 0.000303764 
934 4 9.7255 2.40524 1.17858 -0.00233951 -0.00169125 -0.00540956 
935 4 9.11742 1.02101 1.10101 0.00437876 -0.0396905 0.0091005 
1005 3 11.1196 3.08038 5.21553 -0.00282349 0.00342999 0.000998459 
1007 4 10.3516 2.58386 4.93288 -0.00405137 0.0252931 0.000241532 
99 3 12.159 3.85843 2.633 -0.0032287 0.000491061 -0.00470967 
100 4 11.9899 3.67824 3.55777 0.0100288 0.0248182 0.0223353 
101 4 13.0674 4.15912 2.60922 0.0134382 -0.00610589 -0.0010855 
240 3 15.4596 4.48353 3.27114 0.00420656 0.00439172 -0.00199643 
241 4 15.4781 3.52654 3.26373 0.0200094 -0.00359969 -0.0180321 
242 4 15.9901 4.72795 4.02943 -0.00939314 -0.00199329 0.0179234 
300 3 15.0889 0.239179 4.32725 -0.000566824 -0.00496702 -0.000567667 
301 4 15.2375 0.495422 5.23747 0.00726383 0.0155542 -0.0152276 
820 4 15.6631 1.55711 0.4364 0.00263854 -0.00377476 0.00586375 
876 3 16.6209 2.8477 5.57352 0.00506602 -0.00120441 -0.00242072 
877 4 17.0293 3.6509 5.25052 0.00592437 -0.00177616 -0.0158392 
915 3 14.5831 1.69892 2.16095 -0.00155522 0.00391518 -0.000409846 
916 4 14.3553 0.98155 2.75232 -0.0230102 -0.0101982 0.00781714 
917 4 13.9679 2.39773 2.38321 -0.00978598 0.00197562 -0.00722653 
117 3 18.4189 1.8917 1.78992 -0.000144475 0.00651056 0.00051345 
118 4 18.3574 0.945445 1.92043 -0.02256 -0.00343945 0.00519357 
119 4 18.5304 1.99689 0.845059 -0.00829204 -0.00369491 -0.0042881 
258 3 22.2553 4.83072 0.350826 -0.0050792 0.0026372 -0.000340246 
259 4 21.3097 4.96886 0.406072 -0.0256495 -0.00345962 -0.00153691 
260 4 22.3874 3.94127 0.678907 0.0183565 -0.00505666 0.0194874 
378 3 17.5262 5.15311 4.90851 -0.000285131 -0.00429094 -0.00270256 
480 3 22.5079 0.476992 2.01859 -0.00192564 -0.0002389 -0.000378295 
481 4 21.561 0.340711 1.98592 -0.0111379 -0.0180348 0.0283393 
519 3 20.1061 3.67123 3.44328 0.00592084 -0.0132595 -0.00244069 
520 4 20.0801 4.62688 3.39549 -0.0055671 0.0173758 0.00889925 
521 4 19.5942 3.37919 2.68898 0.00802916 -0.0119396 0.0121387 
618 3 19.3584 4.76875 0.938475 0.00191782 0.000214211 0.00415523 
619 4 18.9575 3.95234 0.64027 -0.00536782 0.0364202 -0.00711328 
620 4 18.7852 5.45583 0.598497 -0.0122934 0.00395546 -3.46144e-05 
878 4 17.2615 2.16122 5.38761 -0.00776369 0.00327223 -0.034821 
937 4 19.6292 4.34609 5.71777 0.0221686 -0.008335 0.00091166 
989 4 22.3149 3.34291 3.2578 -0.021326 -0.0346057 0.0259685 
1057 4 20.7989 0.42782 5.5905 -0.0192089 -0.00769374 -0.0156616 
28 4 2.41753 6.24744 0.882344 0.00400943 -0.01001 0.00595693 
29 4 1.20241 5.56417 0.291992 0.00876554 -0.00142358 -0.00462587 
54 3 0.251685 6.77679 2.37515 -0.000174163 0.00052808 -7.71695e-08 
56 4 0.572055 6.41858 3.20297 0.00730392 0.0131631 0.00793272 
166 4 1.00611 10.7758 1.15247 0.00521293 0.0190312 0.00487751 
210 3 3.93424 5.68334 1.99064 0.000897583 -0.0035793 0.0103336 
211 4 4.39249 6.46059 2.3102 -0.0239811 0.0150906 0.0241876 
315 3 2.13998 9.76183 5.43954 0.00101773 0.000459323 -0.00583062 
316 4 2.39847 8.87574 5.69305 -0.000692184 -0.00350801 -0.0151872 
414 3 1.93066 6.18257 4.41015 -0.00667522 -0.000685205 -0.00216756 
415 4 2.24107 6.25616 5.31263 0.00796828 0.00683064 -0.0115258 
416 4 2.42073 6.85183 3.93249 -0.0088889 -0.0281957 0.0112571 
552 3 5.57967 7.98906 2.82202 0.00235553 0.0013474 0.000154038 
553 4 5.73931 8.92854 2.9122 0.013705 0.000788143 -0.00025836 
554 4 5.70242 7.81323 1.88915 0.00778273 0.031005 -0.00802873 
718 4 0.664938 10.6396 3.58378 -0.0274417 -0.00691146 -0.00940535 
765 3 4.39358 10.6046 2.33227 0.00494906 0.00569031 -0.00608136 
766 4 4.26994 10.4218 1.40086 0.0213426 -0.0145722 -0.00929253 
767 4 3.51288 10.7866 2.6601 -0.0277602 -0.00753306 -0.0192821 
928 4 3.94847 10.4475 5.43424 0.0104512 0.00440437 -0.0136137 
420 3 7.5064 10.1585 5.33578 -0.00228716 0.00277306 -0.00348039 
421 4 6.56564 10.3294 5.38022 0.00901096 0.0164478 -0.000165973 
422 4 7.57384 9.20722 5.25312 0.0180574 0.0075423 -0.0180169 
453 3 8.9614 7.17413 0.146292 -0.000488702 -0.000894766 -0.00103167 
454 4 8.03094 7.32164 0.31576 0.0315298 0.00539516 -0.00230564 
455 4 9.40823 7.58517 0.886308 -0.00926877 -0.0142465 0.010352 
687 3 5.95016 7.14326 0.102027 -0.00312761 0.00120913 0.00545605 
774 3 11.3964 7.82125 4.5884 0.000156678 -0.0063041 0.00437109 
776 4 11.3345 7.76047 5.54166 -0.0260922 0.0180268 -0.00531971 
822 3 10.7307 7.81628 1.97423 0.00229048 -0.0003811 -0.00174872 
823 4 11.1913 6.99341 1.80981 -0.00634068 -0.0192615 0.0137605 
824 4 10.8867 7.99756 2.90107 -0.0359809 0.0167329 -0.0105349 
849 3 6.10733 6.72561 5.05905 0.000543966 -0.00352355 -0.00292273 
850 4 6.35845 5.86119 4.73354 -0.00549814 -0.0142892 0.0301631 
851 4 5.91754 7.23331 4.27009 0.0150707 -0.0106108 0.0133796 
21 3 15.1184 10.4022 1.93076 -0.00238897 -0.00135448 0.00128604 
22 4 15.4129 9.74513 2.56138 0.0323239 0.00308882 -0.0160324 
23 4 14.1984 10.1891 1.77412 0.00265855 -0.00152207 -0.0086017 
339 3 12.3228 10.0664 1.18153 0.00488695 0.000200769 -0.00100827 
340 4 11.586 9.47868 1.34869 -0.0296413 0.020122 -0.00869323 
341 4 12.3901 10.1015 0.227342 -0.0205961 0.0177634 0.0116975 
342 3 13.7563 6.6648 4.40589 0.00482634 0.00164303 0.0038881 
343 4 14.5995 7.11341 4.4693 0.000388977 -0.0202876 0.00654283 
344 4 13.9024 5.81844 4.82845 -0.0145682 -0.00589237 0.0214899 
380 4 16.9605 5.75517 5.39188 0.00689189 0.00844015 -0.0117598 
501 3 14.1416 10.8116 4.96471 0.00375568 -0.00437989 0.00650687 
503 4 14.7849 10.3944 4.39183 0.00122721 -0.00713195 0.0205213 
638 4 14.1469 7.59896 0.152598 -0.00544558 -0.00771536 -0.0037085 
653 4 15.9397 8.1437 5.4856 0.00837269 -0.00149791 0.00142566 
775 4 12.2174 7.37895 4.37253 -0.0326912 -0.0227674 0.0080298 
1086 3 16.9391 6.8974 2.1029 -0.000590671 -0.00815766 -0.000531169 
1087 4 16.8481 7.22195 1.20701 -0.00448551 -0.00637495 -0.0273402 
1088 4 16.2088 6.28845 2.21289 0.00824199 -0.0137059 -0.0149072 
1095 3 16.5387 9.13122 4.10789 0.00183299 -0.00151526 -0.00619663 
1097 4 16.97 8.42884 3.6212 -0.0102304 0.0147446 -0.0016653 
55 4 22.7885 6.00938 1.82174 0.030227 0.00372533 0.0205627 
129 3 19.3472 6.61754 3.33433 0.00251265 -0.00162385 0.00367458 
130 4 20.0137 6.96035 2.73888 -0.0172422 -0.0134517 -0.0162771 
131 4 18.5257 6.7046 2.8508 0.00750242 -0.00706612 0.00824856 
379 4 18.3128 5.66404 4.7176 0.0275817 0.00949576 -0.0386827 
602 4 22.0261 10.4788 5.20642 -0.0103911 -0.0115737 0.0114547 
621 3 22.8244 9.2309 0.750646 -0.0082461 0.000433906 0.00249019 
623 4 22.7069 8.60449 1.46481 0.0104039 -0.0312388 -0.00551185 
717 3 22.4055 10.5002 3.47994 7.87695e-05 -0.000597029 0.00294555 
719 4 22.1593 11.0626 2.74551 0.00166533 0.0175131 -0.0151146 
810 3 20.2856 8.53277 1.57037 -0.00192386 -0.00077571 0.000612291 
811 4 21.1546 8.66099 1.19003 0.0236124 0.0114171 -0.000146315 
812 4 19.8037 9.32744 1.34124 -0.0020117 0.0237373 -0.00500309 
970 4 19.7776 7.34861 4.98913 -0.0201381 0.00409518 -0.0336824 
1096 4 17.211 9.80612 4.20165 0.00327838 0.0244232 0.00164688 
68 4 4.17053 16.5368 4.18334 0.0016377 -0.00818919 0.0365844 
153 3 5.20912 13.1568 3.13375 0.00380149 0.000378807 0.000943121 
154 4 4.62886 12.396 3.1059 -0.000829045 -0.00134019 -0.0168359 
155 4 5.12598 13.4894 4.02743 -0.00610552 0.00327433 -0.00129172 
165 3 1.36547 11.5878 1.50992 0.00479103 -0.00292849 0.00327767 
167 4 1.53432 12.1339 0.742178 -0.0319063 -0.0189485 0.00193441 
219 3 1.00866 13.6015 3.18335 -0.000333731 -0.00257045 -0.00334114 
220 4 0.211552 14.0059 2.84086 0.00322976 0.0147446 -0.0480313 
221 4 1.24857 12.9491 2.5253 -0.0444973 -0.00492343 0.0217043 
541 4 1.22576 13.8907 5.42628 -0.0108113 0.0306696 7.10972e-05 
760 4 3.8964 16.2804 1.25573 0.0221287 0.00295131 -0.00951997 
800 4 0.696357 16.3651 4.94797 -0.00433352 0.0181843 0.000572767 
816 3 4.57357 14.4072 0.763976 -0.00147453 -0.00631472 -0.00650638 
817 4 5.41631 14.611 0.358392 0.011019 -0.0186585 0.0172254 
818 4 4.79262 13.8301 1.4955 -0.00282525 -0.00231102 -0.0148421 
304 4 10.8291 14.2516 5.46772 -0.0259621 0.0106765 0.0156756 
465 3 10.6526 15.253 2.00656 0.00428532 -0.00202679 -0.00210906 
466 4 11.0905 15.2868 2.85705 0.0205521 0.00494186 0.00325028 
467 4 9.91818 14.6534 2.13845 0.00575142 -0.00947936 -0.000961695 
734 4 6.14512 12.6512 5.26848 -0.0223684 0.0151135 0.0178427 
783 3 9.63038 11.7094 4.0381 -0.000257811 -0.000807121 -0.00298085 
784 4 10.3666 11.4141 4.57392 -0.00346427 0.0354669 0.00933888 
785 4 8.88479 11.1976 4.35174 -0.0088703 0.0117478 0.00360896 
831 3 7.01218 15.4543 3.04787 -0.000834385 0.00572533 -0.00182788 
832 4 6.67889 14.5623 2.94984 -0.0117892 -0.0191688 -0.00933459 
833 4 6.23785 15.9787 3.25178 -0.0148692 -0.0212287 0.0218478 
954 3 9.9277 11.9756 1.34658 -0.00522006 -0.00530112 0.00432825 
955 4 9.66306 11.7506 2.23853 -0.0132519 -0.0229551 0.000960877 
956 4 9.10376 12.0747 0.869581 0.00542401 -0.00529055 0.045185 
171 3 15.1494 15.1574 4.72822 0.00740492 -0.00337777 0.00284567 
172 4 15.5728 14.5849 4.08859 -0.0159478 -0.00718552 -0.00214142 
173 4 14.8483 14.5657 5.41772 0.0189749 -0.0126592 -0.0174264 
194 4 12.2153 15.3647 0.725889 0.0160533 0.0205103 -0.0238237 
282 3 16.014 12.9614 2.71605 -0.00103122 -0.00614891 0.00527833 
283 4 15.6537 12.1515 2.35479 0.0109382 0.000740298 -0.0110138 
284 4 16.9121 12.9926 2.38634 0.00989214 -0.0368752 -0.00564801 
312 3 12.9058 12.2969 2.64186 -0.0035042 0.0007101 -0.0053246 
313 4 12.2931 11.6396 2.31189 -0.016375 -0.00664129 -0.0334973 
314 4 13.6448 12.2625 2.03444 -0.00529734 0.0133248 0.00119205 
432 3 15.4114 16.3947 0.972523 0.000713829 0.000641093 -0.000357041 
433 4 14.891 16.622 0.201976 -0.00199085 0.0041002 0.0182589 
434 4 14.7975 16.4588 1.70415 -0.0299265 -0.000296183 -0.0164953 
502 4 13.5485 11.2676 4.36754 0.000750276 0.00264591 0.00894804 
729 3 12.2137 14.5912 4.18122 0.000148819 0.00179767 0.00191994 
730 4 13.0636 14.9625 4.4179 -0.0125145 -0.0113676 0.00945612 
731 4 12.424 13.8676 3.59096 0.014132 -0.0133417 0.0173065 
947 4 16.7497 16.3402 2.99094 0.0115137 -0.00836777 -0.0284386 
102 3 19.741 11.9429 3.87869 -0.000919044 -0.0105606 0.0010122 
103 4 19.489 11.5972 4.73496 -0.00769721 0.0236101 -0.0135017 
104 4 20.5462 11.4747 3.65827 0.00823693 -0.0255904 -0.0107425 
159 3 20.7651 16.7143 2.50371 -0.00252474 0.00479146 -0.000512635 
161 4 20.8751 15.9125 3.01485 -0.0135799 0.00961184 0.00842987 
348 3 20.8789 14.7364 4.3886 -0.000420835 -0.00184271 0.00342293 
349 4 20.4765 15.2524 5.08729 -0.054939 -0.00561271 -0.011948 
350 4 20.4222 13.8957 4.41774 0.00125318 -0.00435387 0.0157889 
423 3 18.6602 12.7674 1.37047 0.000343163 0.00602642 -0.00575186 
424 4 18.739 12.0237 0.773066 -0.0184729 -0.00101883 -0.0103453 
425 4 18.9525 12.4278 2.21632 -0.0188104 0.00815276 0.0155549 
813 3 18.0393 15.0786 0.0878933 0.00221652 -0.00189018 0.00194081 
815 4 18.2199 14.1965 0.412897 0.0118845 0.000350022 0.00565681 
945 3 17.5465 15.9561 3.35674 -0.000799283 0.00273568 0.002379 
946 4 17.7287 15.202 2.79609 -0.0140034 0.0117624 0.00497787 
1076 4 18.2443 16.2287 5.21227 0.00467704 -0.00418231 0.0339881 
66 3 4.96758 17.0357 4.0041 0.00412505 0.00136816 -0.000833667 
67 4 5.29306 17.2867 4.86855 -0.0154049 0.0247303 0.00778373 
97 4 5.82642 20.6293 0.197021 -0.0138848 -0.0143171 0.0104932 
169 4 2.09679 21.7804 3.39454 0.0255782 -0.00439238 0.0136199 
186 3 0.767638 20.6674 0.772798 0.00083497 0.000495978 -0.000802111 
187 4 0.474254 19.8055 0.477466 -0.01675 0.00363661 -0.0116131 
270 3 1.09179 17.635 1.92695 0.0004357 0.00930357 0.00309182 
271 4 0.312628 17.168 1.62523 0.0116223 0.0302582 0.0373436 
272 4 1.19486 17.3653 2.83957 0.00925541 0.0128749 0.00169773 
450 3 0.951036 20.3645 3.45329 -0.000959775 0.00114808 0.00521974 
451 4 1.3867 19.5217 3.58028 -0.0152023 -0.00260526 0.00259628 
452 4 0.750731 20.3925 2.5177 0.0021095 -0.00133732 0.0102635 
482 4 0.197167 22.3504 1.66523 0.00920216 0.00832616 -0.0067771 
648 3 4.84281 19.694 2.88814 -0.000564257 -0.00468264 0.00422325 
649 4 5.68972 19.6484 2.44443 0.0140649 0.0253878 0.00711852 
650 4 4.7163 18.8188 3.25449 0.00806118 0.0108605 0.0303114 
744 3 4.09728 19.754 0.128132 -0.000560942 0.0045161 -0.00378447 
745 4 3.86137 20.2161 0.932505 0.00142048 0.00891614 -0.0177989 
746 4 3.89074 18.837 0.308819 0.0240718 0.0220083 0.00802379 
759 3 3.67064 17.204 1.14478 -0.00428614 -0.0028778 0.00578418 
761 4 2.72604 17.2399 1.29538 -0.00325771 0.0319011 -0.0108309 
798 3 1.02357 17.1746 4.5557 0.000750851 -1.05505e-05 -0.000986703 
799 4 1.6042 17.5457 5.22011 0.0244049 0.00122262 0.00892617 
96 3 6.38013 21.2345 0.690304 0.0033475 -0.00301113 -0.00686999 
98 4 5.93496 22.0789 0.619636 -0.00289436 -0.00271062 -0.00619358 
120 3 7.11749 20.1827 4.98002 0.00305319 0.000991143 -0.00263407 
121 4 6.36937 20.0789 4.392 0.00251101 0.0069575 0.00382246 
122 4 7.6554 20.8582 4.56703 0.00121424 0.0374925 0.00957801 
144 3 10.7212 20.7218 4.17573 -0.000910294 0.00602414 -0.00169965 
145 4 10.0188 21.3711 4.1392 -0.0191409 0.00171726 -0.00991536 
146 4 10.2784 19.9011 4.39168 -0.0172531 0.00030244 -0.0216315 
204 3 9.50815 18.5285 5.34479 0.000546646 -0.00367899 0.00262496 
206 4 8.6004 18.4831 5.64506 0.0279972 -0.0208329 -0.00462546 
293 4 7.58896 18.7665 0.448104 0.0153999 0.00473091 0.0347094 
399 3 8.34982 21.592 2.74375 0.000150217 -0.00664543 -0.00137776 
400 4 8.7469 21.111 2.01766 -0.0156351 0.00769917 -0.00221537 
401 4 7.41619 21.6155 2.53397 0.00775596 0.00391079 0.000830489 
861 3 10.0694 17.7298 0.794895 0.00108515 -0.00376539 0.00390509 
862 4 9.5091 17.3835 0.100344 0.0157457 0.0244792 -0.00462493 
863 4 10.2638 16.9721 1.34656 -0.00398961 -0.00537727 0.0133781 
972 3 7.33639 18.2379 2.20006 -0.00318204 0.00323813 -0.000421867 
973 4 7.95335 18.4022 2.91323 -0.0114322 0.00943314 -0.0331647 
974 4 7.26675 17.2842 2.15791 0.012688 0.00268565 -0.00451504 
992 4 10.5944 19.529 0.388565 -0.000226585 -0.00139749 0.00395835 
65 4 16.2382 20.6458 0.46396 0.0250686 -0.0185079 -0.0176257 
195 3 15.7772 20.3794 4.3474 -0.00596371 0.000163001 0.0110237 
196 4 16.5497 20.6187 4.85941 0.00144993 0.0250248 0.000822242 
197 4 15.7469 19.4237 4.39109 -0.0162731 -0.0147209 0.00439806 
255 3 16.1325 17.8009 5.03211 -0.00322752 0.00162083 0.00519271 
256 4 15.8622 16.8842 4.98063 0.0102075 -0.00599301 0.0134798 
302 4 15.4963 22.0582 4.25128 -0.00618279 -0.0231763 0.0033674 
477 3 14.9373 19.3624 1.85427 -0.000653579 0.0022045 -0.00275366 
478 4 14.1375 19.0419 2.27127 0.00385979 -0.0225767 0.0170225 
479 4 15.3436 19.924 2.51434 -0.00673644 -0.0117807 0.0195214 
710 4 13.8493 21.2814 1.01424 0.0164689 0.00835243 -0.00911977 
753 3 13.1804 18.0616 5.18417 0.00758671 -0.00108955 0.00352818 
754 4 14.1344 18.138 5.16906 0.0119272 0.00547143 -0.00357066 
755 4 12.9272 18.0339 4.26148 0.0188395 0.0221211 0.0223296 
902 4 11.9805 20.8904 5.64166 -0.00351015 0.00162345 -0.00413929 
991 4 11.8162 20.3913 0.153342 0.00769696 -0.0131263 0.0190782 
1002 3 12.351 18.7219 2.53263 0.0043422 0.00450419 0.000411353 
1003 4 11.9254 19.5726 2.63878 -0.023762 0.0163721 0.0196814 
1004 4 11.6889 18.173 2.1124 -0.0170481 0.00460294 0.00686217 
160 4 19.8184 16.8526 2.47488 0.0107747 0.0105908 -0.00749595 
213 3 18.6813 21.6547 1.7714 -0.0020235 0.00191553 0.00221579 
214 4 18.2563 21.5813 0.916872 0.00100766 0.003209 -0.00841631 
215 4 19.3593 20.9791 1.76102 -0.0331014 0.0233225 -0.00140535 
228 3 21.2139 18.9633 4.30302 0.00042161 6.43066e-05 0.00150721 
229 4 22.1042 18.6158 4.35558 0.0247616 0.012582 -0.0192854 
230 4 20.759 18.3686 3.70672 0.00142734 0.0283615 0.0346126 
462 3 18.0821 18.6795 3.11015 -0.000932752 -0.00389906 -0.00321643 
463 4 18.2459 19.5191 3.53966 -0.00645159 -0.022781 0.00262619 
464 4 17.9507 18.063 3.83051 -0.00393301 -0.00356922 0.00732662 
483 3 18.3248 21.4501 4.5887 -0.00104868 -0.00218589 0.00390377 
484 4 18.4604 22.0347 3.843 -0.00761561 0.0484967 -0.0131895 
485 4 18.7456 21.8967 5.32337 -0.00983992 -0.00540729 0.017403 
654 3 21.1844 18.8161 0.505151 -0.00371065 -0.00668156 -0.00768303 
655 4 20.7673 18.0818 0.955834 -0.0182323 0.0216759 0.00111226 
705 3 18.4311 17.9368 0.568343 0.000293673 0.00624186 0.000492292 
706 4 17.9035 17.1388 0.536662 0.00785437 -0.0159134 -0.0168119 
707 4 18.2031 18.3422 1.40489 -0.0227566 0.00100714 0.010457 
768 3 21.4757 21.7013 4.7322 -1.94312e-05 0.00635029 0.000799166 
769 4 21.3513 20.8139 5.06872 -0.0335244 -0.0151735 -0.000984059 
770 4 22.1826 21.6184 4.09217 -0.0176084 0.00775702 -0.0239504 
48 3 2.52424 0.073014 10.5685 0.00816185 0.00142708 0.000911631 
49 4 2.68538 0.590873 9.77974 -0.00490604 0.00841223 -0.017727 
50 4 1.58623 -0.116101 10.5439 0.0271813 -0.01902 0.0319445 
111 3 3.6776 1.89201 8.95346 0.0049528 -0.00053282 0.00212019 
112 4 3.54941 1.6007 8.05072 -0.00418267 -0.00284598 -0.0185946 
113 4 3.58472 2.84387 8.91395 0.0143293 0.00918495 -0.0126244 
412 4 4.94801 1.33374 5.91983 0.0174152 -0.00606586 0.0112622 
527 4 2.42159 4.30982 10.7369 -0.0300585 0.0249934 -0.0373801 
627 3 0.452004 4.77737 6.45614 -0.000755884 -9.28426e-05 -0.00363361 
629 4 0.800237 3.88873 6.52876 0.0121405 -0.000806288 0.0153203 
697 4 0.366179 2.29007 7.88395 0.000956025 -0.00833043 0.00383914 
698 4 0.587098 2.66935 9.33282 -0.0287112 0.00102328 -0.00817742 
864 3 3.59369 4.09184 6.18351 0.00167288 0.00519261 0.00210164 
865 4 4.46354 3.87933 6.52178 -0.00476149 -0.0133305 0.0554456 
870 3 3.26775 0.493609 6.27991 -0.00461679 -3.32918e-05 -0.000125503 
978 3 2.8865 4.60284 8.70508 -5.2589e-05 0.00422023 -0.00199505 
979 4 2.91664 4.67601 7.75116 0.0175199 -0.00111367 0.00514001 
980 4 3.36892 5.36736 9.01977 -0.0108649 -0.00156013 -0.0104023 
1140 3 1.1244 2.25237 6.14698 -0.00101869 0.00124849 -0.00715196 
1141 4 1.68829 1.48663 6.25605 0.00507761 -0.0146579 -0.00329229 
61 4 11.3441 1.62615 10.5536 -0.00770596 -0.00548612 -0.0182664 
162 3 8.50344 2.93955 8.66652 0.00689361 -0.00318302 -0.00443917 
163 4 8.26356 2.52075 9.49314 0.0110484 -0.0348181 0.01669 
164 4 9.35434 3.34233 8.83962 0.0119779 -0.0176993 0.00561886 
393 3 8.57567 5.42494 6.35908 -0.00218279 -0.002818 0.00266412 
395 4 8.68667 4.63684 5.82728 -0.0220212 0.0253249 0.0258939 
644 4 8.59372 0.332671 10.577 0.00516449 -0.00737377 -0.0129721 
855 3 8.41642 0.610781 6.80366 -0.00243202 -0.00453749 0.00521895 
856 4 8.4449 1.41085 7.32836 0.027746 0.0104277 -0.0133541 
857 4 9.0109 0.781575 6.07315 0.00958111 0.0293343 0.0337791 
888 3 6.25129 4.47614 8.74515 0.00978036 0.00541734 -0.00516579 
889 4 6.2264 4.13298 9.63837 0.0242268 -0.00312766 0.00704584 
890 4 7.04378 4.09752 8.36459 -0.0298296 -0.033465 -0.00329085 
891 3 10.1508 4.87147 9.78383 -0.00263181 0.00372903 0.00731918 
892 4 10.7027 5.40009 9.20741 -0.00241316 0.00940996 -0.000944351 
1006 4 11.0924 3.0409 6.17153 0.0138153 -0.000424853 -0.0178934 
1062 3 8.76742 2.16668 11.4049 0.00217401 -0.00290599 0.00522379 
1120 4 11.4953 5.29926 6.3939 0.00159881 0.0324994 -0.0122534 
15 3 14.4064 4.01772 6.77367 -0.00211651 -0.00340318 -0.00340705 
16 4 14.9034 3.27462 6.43169 -0.0251475 0.0129539 0.000282425 
17 4 15.017 4.46606 7.35877 0.00944311 0.0292227 0.0145772 
60 3 12.0671 2.09065 10.9752 0.00178757 -0.00492728 -0.00223502 
306 3 11.6272 2.85907 8.09155 -0.00142323 -0.00693052 0.00253726 
307 4 12.4383 3.00645 7.6052 -0.0314348 0.0117269 -0.00687575 
308 4 11.7306 3.37339 8.89218 0.00323811 0.0196112 -0.0208848 
669 3 14.3293 0.0947959 7.29331 0.0022301 -0.0049895 0.000129139 
671 4 14.1311 0.273915 8.21248 -0.00778887 -0.00399522 -0.00721731 
777 3 16.1183 4.71448 8.63637 0.00444149 -0.00305808 -0.00193111 
778 4 17.0616 4.60335 8.51804 -0.010249 -0.00164757 0.00140746 
779 4 15.8407 3.92695 9.10432 0.00401915 0.0200332 -0.0114668 
839 4 13.4108 -0.162027 10.8081 -0.00765 -0.00686087 -0.00105999 
1043 4 17.1657 3.69165 11.0622 -0.0152486 -0.0353571 0.035452 
1143 3 14.464 2.39113 9.70503 0.000631161 0.000596725 -0.000637611 
1144 4 13.5546 2.53199 9.96847 0.00996739 -0.0118679 0.0151726 
1145 4 14.6195 1.46068 9.86728 0.0180211 -0.00197311 -0.01042 
556 4 22.3572 0.174777 9.9635 0.0153494 0.00366134 -0.0118204 
696 3 22.8391 2.01867 8.77777 0.00451827 0.00364696 -0.00257979 
739 4 18.2634 -0.183619 7.69652 0.00940724 0.00900924 0.00029841 
936 3 19.9331 4.24082 6.61933 -0.00237833 -0.00144388 -0.00440281 
938 4 20.8295 4.57633 6.61116 0.0104983 -0.00365108 -0.019736 
1014 3 18.9228 3.99205 9.0251 -0.00663664 -0.00194211 -0.00127258 
1015 4 19.7223 4.31861 9.43789 0.0092486 0.0107578 0.0178778 
1016 4 19.1609 3.8671 8.10643 -0.0367078 0.0328558 -0.0192719 
1056 3 20.1202 0.841129 6.12414 -0.00693946 -0.000240123 0.000157503 
1058 4 20.2759 1.78038 6.02519 -0.00971181 -0.0329636 -0.025325 
317 4 1.35297 9.9389 5.95481 0.013084 -0.00710177 -0.00111277 
360 3 2.20919 9.44465 10.9178 -0.0023551 0.00247804 -0.000263074 
361 4 1.72922 9.61111 10.1065 0.00710058 -0.0161309 -0.00519423 
567 3 4.32798 7.13304 9.42945 -0.000740857 0.00170852 0.00674919 
568 4 5.28102 7.17603 9.50762 0.0280695 -0.00238442 0.0245741 
569 4 4.00565 7.34055 10.3065 0.00650555 -0.00387104 -0.00433288 
639 3 4.02705 10.2516 8.70419 0.00867567 0.000701081 -0.00745749 
640 4 4.97398 10.1688 8.81683 0.0213593 0.00381797 0.0248862 
641 4 3.6546 9.68159 9.37699 -0.00427766 0.00266425 -0.00632854 
789 3 3.27277 7.21263 6.48626 -0.00229822 -0.00798002 0.00186287 
790 4 4.16089 7.20051 6.12943 0.0101523 0.0126206 -0.0203774 
791 4 3.3664 6.86897 7.37473 0.00791715 0.000653044 0.0193041 
927 3 4.76486 10.3776 5.92906 -0.00107399 -0.0040747 -0.00287384 
929 4 4.48579 10.2554 6.83648 -0.0160149 0.0178075 0.00133842 
385 4 7.49698 5.82852 11.3212 0.0224842 -0.00508807 0.00749083 
394 4 7.68601 5.72104 6.16654 -0.0126777 0.0066208 -0.0103898 
495 3 8.6806 9.26795 11.2819 -0.00492121 -0.00402849 -0.00308153 
496 4 8.61949 8.31676 11.1939 -0.0139512 -0.00100037 -0.0195045 
528 3 6.27761 10.1932 10.7747 0.00513261 -0.00546498 -0.00239456 
529 4 7.13808 9.79855 10.6328 -0.0227824 0.0122551 0.00901954 
530 4 6.3774 11.0986 10.4805 -0.0214141 -0.0109076 0.0347707 
893 4 9.67157 5.51129 10.3103 0.0238157 0.0194202 -0.0161553 
1083 3 8.59225 10.0025 8.21552 0.00205918 0.006995 0.00821519 
1084 4 8.65707 9.09888 7.90647 -0.00165329 0.00116369 0.0018747 
1085 4 9.19837 10.0473 8.95501 0.0216977 0.0108323 0.0124959 
1119 3 11.2267 5.98744 7.00259 -0.00393448 -0.00280007 -0.00134558 
1121 4 10.2831 5.86289 7.10442 0.0210846 -0.0191062 0.0141904 
6 3 13.9868 8.65939 9.90681 0.000959588 0.00217558 -0.00973557 
7 4 13.6569 7.81504 9.59949 0.000238989 -0.0346617 0.0166131 
8 4 13.7361 8.69341 10.83 -0.0105463 0.00884777 0.00351034 
25 4 14.5572 10.4878 9.08491 0.0159067 -0.00894363 0.0141285 
36 3 16.3704 8.3803 8.67999 -0.00556418 0.00205222 -0.00711436 
37 4 16.6771 7.62267 9.17814 -0.0228474 0.0510751 -0.0153458 
38 4 15.4864 8.54216 9.00934 -0.000220651 0.0348959 0.0307738 
471 3 13.5555 5.98698 9.18052 0.00497214 0.00304721 0.00213313 
472 4 13.0452 5.65717 8.44094 0.00152986 -0.0309437 -0.014024 
473 4 14.4575 6.00488 8.86069 0.0116928 0.0063091 -0.0200334 
651 3 15.8912 7.30919 5.95195 -0.000547876 -0.000685303 0.000632515 
652 4 15.9971 7.54307 6.87407 -0.0143867 -0.00897106 -0.00343643 
1108 4 16.745 7.34242 11.2793 -0.0281215 0.0187167 -0.0150145 
201 3 18.3607 9.98122 6.41141 -0.00944737 -0.00176081 0.00475793 
202 4 18.2364 10.9283 6.47349 -0.0160432 0.0113797 0.0221367 
203 4 18.1 9.64815 7.27007 -0.00407337 -0.00221939 -0.0194657 
225 3 21.267 5.54609 9.51672 0.00414283 -0.00187531 -0.00536789 
226 4 22.0734 5.52821 9.00138 -0.0144205 0.0224868 -0.0131322 
227 4 20.7394 6.23523 9.11299 -0.00674948 -0.0123091 -0.00778288 
294 3 21.7941 8.97736 9.69684 0.00246025 0.00389346 0.00385774 
295 4 22.2032 8.62248 8.90755 -0.0181973 0.0143289 0.0279675 
296 4 21.1159 9.56876 9.37049 -0.00171619 0.0121827 -0.00269861 
397 4 18.9694 7.54255 10.6601 -0.00372741 -0.0151701 -0.0349597 
398 4 19.4563 8.80731 11.3348 -0.0158133 0.0117362 -0.003628 
417 3 19.1791 7.31978 8.82203 -0.000597702 -0.00338367 0.00216844 
418 4 18.8465 6.4756 8.5171 0.00434249 0.00269047 0.000372098 
419 4 19.4809 7.76 8.02745 -0.0138623 0.00847749 0.00103552 
468 3 19.4165 10.3695 10.019 0.00216877 -0.00170575 0.00268706 
470 4 18.5952 10.4566 9.53517 -0.0216644 0.0131617 0.0264816 
600 3 21.5937 10.3703 6.05348 0.00566206 0.0060477 -0.00694173 
601 4 21.9156 11.1002 6.58246 -0.0166201 -0.00117013 0.0463625 
903 3 22.3445 7.87858 7.19183 0.0016364 -0.00213259 -0.000100597 
904 4 22.4434 8.49184 6.46358 0.0283267 0.00509928 0.0323831 
905 4 22.8174 7.09494 6.91157 -0.0227385 0.0036623 0.00702317 
949 4 22.0242 6.18628 11.3544 -0.0174878 -0.0122122 0.0346671 
950 4 21.7623 7.67209 11.2292 0.00778422 -0.0196979 0.00634214 
969 3 19.6638 7.55176 5.91758 -0.000960716 0.00704116 -0.00355384 
971 4 19.8116 8.49564 5.97658 -0.00220015 -0.00415106 -0.00550234 
39 3 3.03404 13.2264 9.02664 0.00610704 -0.000221726 -0.00432093 
40 4 2.72371 13.2784 8.12264 -0.0132594 0.00147977 -0.000516405 
41 4 3.32101 12.3191 9.13007 0.0162793 -0.0186998 0.0169482 
109 4 0.298831 12.1909 8.30403 0.0141141 -0.0267814 -0.0318075 
110 4 0.28515 13.0436 7.05322 0.0239225 0.0213487 0.012982 
363 3 3.82411 16.202 9.21624 -0.00161665 -0.00337255 0.00260101 
364 4 4.66484 15.75 9.14501 0.00941891 -0.0263202 -0.00101607 
365 4 3.17781 15.4986 9.27693 -0.0265848 -0.0196319 -0.0254816 
376 4 2.79474 13.4888 10.9787 -0.019274 0.0080457 -0.00788761 
498 3 0.953239 15.5517 8.98491 0.00683046 0.0037402 0.000836365 
499 4 0.530004 16.3135 8.58906 -0.0340392 -0.029649 -0.00854478 
500 4 1.45709 15.1595 8.27177 -0.00292875 0.00180774 -0.00161099 
540 3 1.46027 14.1571 6.31527 0.00433621 0.000310992 -0.00108807 
542 4 2.32162 14.5646 6.22437 -0.00295176 0.0159359 -0.00082651 
550 4 0.562023 15.6448 11.0147 0.00902204 -0.0266273 -0.0168854 
732 3 5.61511 13.2271 5.8196 -0.000112749 -0.00199444 -0.0020537 
807 3 3.50294 15.9293 6.25691 -0.00152394 -0.000919958 -0.0033152 
808 4 4.39516 15.583 6.24013 0.0198408 0.0117178 0.00839739 
809 4 3.52758 16.6243 6.91458 0.0156985 -0.00855454 -0.0049538 
303 3 10.3573 14.2837 6.29994 -0.00467413 0.0084129 0.00587712 
305 4 10.9431 13.8561 6.92461 -0.00532136 0.00574406 0.0092249 
510 3 6.46836 12.7255 10.1694 0.00167215 -0.00246244 -0.00524446 
511 4 5.88651 13.4755 10.2929 0.00675656 -0.0171254 -0.0150534 
512 4 6.71459 12.7625 9.24517 0.00637912 -0.00388468 0.0265667 
733 4 6.15344 13.3779 6.59657 0.0165749 0.0120344 -0.00610556 
792 3 7.64801 12.4198 7.39845 0.00201647 -0.00456587 0.000329562 
793 4 8.39563 12.7512 6.90103 0.0243635 -0.0152651 -0.0109838 
794 4 7.7582 11.4689 7.39231 -0.0193702 0.00802034 0.0108218 
960 3 9.88374 16.7233 7.60001 -0.00672649 0.0016709 -0.00198438 
961 4 9.99748 15.938 7.06451 -0.0147179 0.000357414 0.00761602 
962 4 10.5638 16.6571 8.2704 -0.00722148 0.0113198 -1.83732e-05 
1098 3 8.50132 15.9193 10.1833 -0.00215995 0.00464225 0.00279799 
1099 4 9.39375 16.1826 10.4079 0.00235206 -0.00526629 0.0200147 
1100 4 8.03934 15.8976 11.0213 -0.0126548 0.0209656 0.0345736 
1134 3 6.26493 14.9844 8.25707 -0.00427234 0.00672242 0.00579575 
1135 4 6.85517 15.4765 8.82775 -0.0236224 0.00617231 -0.0041654 
1136 4 6.84042 14.5808 7.60731 -0.0154317 -0.00752462 0.0103984 
24 3 14.6764 11.4316 9.19054 0.00122188 0.000371129 0.0055761 
26 4 14.6498 11.5725 10.1369 0.0345161 -0.00310503 0.00666891 
44 4 17.0928 14.6065 8.23134 -0.0142025 0.00680883 -0.00883329 
126 3 12.7754 13.7856 11.3099 0.000824266 -0.00146624 0.00419718 
127 4 13.6021 14.0603 10.9131 0.00629691 -0.00604286 -0.0133556 
318 3 11.685 11.6346 7.57904 0.00182052 0.00588151 -0.00211219 