ITEM: TIMESTEP
0
ITEM: NUMBER OF ATOMS
1151
ITEM: BOX BOUNDS pp pp pp
1.6762900000000000e-01 2.2849499999999999e+01
-2.0329000000000000e-01 2.2478600000000000e+01
8.2643499999999995e-02 2.2764500000000002e+01
ITEM: ATOMS id type x y z vx vy vz 
27 3 3.79005 5.4496 0.137099 0.00423885 -0.00152653 0.00316049 
210 3 4.35487 4.8915 2.8365 0.00414859 0.000998076 0.00327541 
211 4 5.28417 4.6813 2.74454 0.0237595 -0.00230848 -0.00490828 
212 4 3.99417 4.16641 3.34677 -0.0118045 -0.032853 0.0163442 
587 4 1.24682 3.10473 0.216065 -0.0290781 -0.0225225 -0.00135467 
866 4 3.75765 2.9368 5.24789 -0.0110764 0.000766968 0.00899009 
872 4 3.3195 0.237204 4.93145 -0.0277004 -0.0106683 0.00477166 
879 3 3.23538 2.46801 3.5255 -0.000785438 0.00186669 -6.4169e-06 
880 4 2.49158 2.3557 2.93357 0.0093095 -0.0160954 0.00260999 
881 4 3.63125 1.59829 3.58115 0.0370702 -0.00234921 -0.0238202 
987 3 0.237989 2.53738 3.27397 -0.00190175 -0.00746078 -0.00275168 
1137 3 3.97747 0.93989 0.50192 -0.00553061 0.00624793 -0.000569525 
1138 4 3.39993 1.67099 0.282436 0.00458462 -0.00511503 -0.014101 
1139 4 4.68757 1.33783 1.00553 0.00498427 -0.000817644 -0.0183359 
1142 4 0.954496 2.28552 4.9679 -0.017509 0.0175935 -0.00715499 
98 4 6.63799 0.086588 0.214467 0.00395689 0.0166836 0.00493661 
136 4 11.2301 3.90414 0.363523 0.0165443 -0.00180164 0.0172578 
357 3 6.89639 4.10571 2.40357 0.00500095 0.00370027 -0.000201838 
358 4 7.4875 4.71409 2.84707 -0.00709139 0.0100466 0.0284556 
359 4 7.45193 3.36471 2.16166 0.0102186 -0.00945843 -0.0302708 
413 4 7.03033 1.22413 5.43971 0.00259723 -0.00200919 0.00194752 
594 3 8.9033 4.99038 4.19022 -0.00359212 0.00277036 0.00953038 
595 4 9.84479 4.81786 4.18202 -0.0317132 0.0135603 -0.014648 
596 4 8.73972 5.38857 5.04516 -0.0138484 0.00761624 0.00708899 
645 3 9.34817 1.63973 5.06829 0.000718842 0.00138529 -0.00298428 
646 4 9.63836 1.19833 4.27004 -0.0203457 0.0127609 0.0131653 
647 4 9.68834 2.53075 4.98703 -0.0259875 0.0292438 -0.00830953 
714 3 5.93266 1.27998 2.39181 -0.000310653 0.0021128 0.00198511 
715 4 6.07686 0.616556 3.06657 0.0113524 0.00231598 -0.00276775 
716 4 6.00657 2.11404 2.85562 0.0173042 -0.0288502 -0.00416699 
771 3 8.55196 2.33281 1.11625 -0.00352165 -0.000622186 -0.000875757 
772 4 8.79445 3.0423 0.521229 0.00165303 0.00242829 0.0216746 
773 4 7.826 1.88923 0.677543 0.00532015 -0.00521048 0.0282323 
852 3 10.0318 5.13909 0.989628 -0.00587182 0.00377017 0.000702714 
853 4 9.1388 4.90585 0.735954 0.020703 -0.000644805 0.00515942 
933 3 10.3674 1.20997 2.50501 -0.00201572 -0.0031697 0.00372301 
934 4 11.2151 1.6134 2.31833 0.00808627 -0.00315574 -0.00252462 
935 4 9.7297 1.78472 2.08168 -0.0205751 0.0198825 0.00380544 
1005 3 11.4415 3.80065 5.18624 -0.000442174 -0.00361076 -0.0023536 
1007 4 11.3817 4.69224 4.84311 0.0405354 0.00211752 0.0262396 
99 3 12.666 2.86267 3.07191 -0.000897611 0.00472812 0.00446405 
100 4 12.4101 3.06246 3.97236 0.00985367 -0.00225421 0.0108861 
101 4 13.51 2.41874 3.15518 0.00963913 -0.010838 0.00026436 
135 3 12.0612 3.43533 0.288216 0.00106502 -0.00631089 -0.00540422 
137 4 12.3331 3.28204 1.19309 -0.00597972 -0.00871156 -0.000279389 
240 3 15.0732 5.08021 3.61455 0.00602667 -0.000716342 0.00634792 
241 4 15.4554 4.26466 3.93868 -0.00908125 0.00544894 0.0101688 
242 4 15.525 5.24459 2.78682 0.00219867 -0.0434714 0.0105394 
300 3 15.8177 1.93442 5.48461 0.00171952 -0.00362425 0.00696015 
302 4 16.7504 1.99628 5.69086 0.0158578 0.0156554 -0.0198255 
819 3 14.4075 1.15439 0.157096 -0.0024225 -0.00330442 -0.00157085 
820 4 14.1341 0.644744 0.919797 0.0481378 -0.0115283 -0.0199894 
915 3 14.782 1.17208 2.94153 0.00499088 0.00446323 -0.00103225 
916 4 14.3738 0.475068 3.45515 0.00821223 -0.0371441 0.00533141 
917 4 15.5702 1.40246 3.4333 -0.0104403 -0.021487 0.0322695 
1020 3 16.9802 2.01102 0.464146 -0.0068721 0.00358627 -0.0046189 
1021 4 16.0576 2.24884 0.371411 0.00540709 0.00484956 -0.0133607 
55 4 22.4838 5.18352 1.54437 -1.39931e-05 -0.00747283 0.0176678 
117 3 18.1438 2.29256 2.77659 -0.0048811 -0.00165645 -0.00226763 
118 4 17.9445 1.58614 3.39097 0.00538366 0.00842899 -0.00391014 
119 4 17.74 2.01623 1.95393 -0.00468604 0.0189279 0.00402344 
258 3 22.1134 3.97458 0.22941 -0.00433176 -0.00682276 -8.35137e-05 
259 4 21.3158 4.50117 0.282302 0.00836809 -0.00291546 0.00716062 
480 3 21.3442 0.114887 1.89638 0.00278354 0.000799586 -0.00163633 
481 4 20.4636 -0.0538695 1.56124 0.00351961 -0.0241822 -0.00843841 
483 3 17.4568 0.0193346 4.3982 0.0059223 0.00299587 -0.00304172 
484 4 17.5652 -0.179296 5.32827 0.00951534 -0.000186433 0.00290939 
519 3 20.3385 3.53835 3.64494 -0.00444292 -0.00243234 0.000280662 
520 4 20.2508 4.24921 3.00993 0.00309104 -0.0181845 -0.00734689 
521 4 19.4887 3.09801 3.6311 -0.0197062 0.0122514 0.00514556 
618 3 19.2914 4.59689 1.06087 -0.00219411 0.00345718 0.00267694 
619 4 18.5371 4.00821 1.08726 -0.0118344 -0.0234291 -0.0143398 
620 4 19.1735 5.17215 1.81678 -0.00154978 -0.0273266 0.0199877 
769 4 21.3273 -0.0410514 3.62436 0.00719166 0.00328606 -0.00826315 
877 4 17.8241 4.09577 5.63923 0.0189577 -0.0105837 0.0212898 
937 4 20.6787 3.80953 5.34245 -0.00657782 0.00168888 -0.0035133 
988 4 22.0837 2.99451 3.36428 0.0201027 0.00923048 -0.019639 
989 4 22.7348 1.81498 2.67385 0.00330532 -0.0138065 0.0179634 
28 4 3.89859 5.47202 1.08786 0.00786489 0.00325744 -0.00169315 
56 4 0.338312 5.53834 2.91489 -0.0206555 -0.0156973 -0.00620119 
315 3 2.14201 8.89512 5.02418 -0.00408157 0.00449404 0.00106582 
317 4 1.67519 9.67099 4.71379 0.00720749 0.000281641 0.0129448 
414 3 1.81499 6.04828 3.92888 0.00237401 -0.000444038 0.00108718 
415 4 2.05789 6.92113 4.23769 0.00252819 -0.0330298 0.00256583 
416 4 2.63847 5.56047 3.91608 0.032251 0.035352 0.011649 
553 4 5.08706 9.89115 1.73191 0.00626246 -0.00650558 -0.00666939 
621 3 0.710508 8.06578 1.64397 0.00970197 -0.000689406 0.00721553 
623 4 0.496012 7.16843 1.89888 0.00732996 -0.0105257 0.0251494 
689 4 5.52773 6.67752 0.471578 -0.014965 0.0176715 0.018643 
717 3 0.34548 10.3795 3.23763 -0.00380848 -0.00258896 0.000986325 
718 4 0.383071 11.0458 2.55142 -0.00257154 0.00895814 -0.00966639 
719 4 0.572251 9.56321 2.79218 0.0140209 -0.00270228 -0.0187331 
765 3 3.26942 10.7642 2.50959 0.00343471 0.000262072 0.00152349 
767 4 2.61877 10.355 3.08008 0.0218409 -0.0251644 -0.000730085 
790 4 4.69881 6.71994 5.364 -0.000616027 -0.0117422 0.0016607 
791 4 3.66221 7.80347 5.57209 4.62469e-05 0.0355988 0.00129048 
341 4 10.7866 8.31681 0.751073 -0.0177122 -0.00623243 -0.0166491 
420 3 6.73132 9.82211 4.37342 0.00356143 -0.00171136 -0.000548511 
421 4 6.0248 10.0727 4.96862 -0.00450746 0.00985723 0.00390361 
422 4 6.31621 9.78138 3.51187 -0.00891411 -0.0168806 0.00825241 
453 3 8.74023 8.12951 1.18948 0.000547438 0.0016135 -0.000471561 
454 4 7.90881 7.81172 0.837377 -0.00281523 0.00304628 0.0175563 
455 4 8.59134 9.06083 1.3529 0.00542129 -0.00519783 0.0283929 
552 3 6.0224 9.68929 1.75668 -0.0045656 0.00161195 0.000139842 
554 4 6.12567 8.95545 1.15084 -0.00797671 -0.00710592 -0.0281806 
687 3 6.2581 7.22992 0.192936 0.0010535 -0.00844939 -0.000968235 
775 4 11.4595 8.01396 5.60184 0.014993 0.0205817 0.0250635 
783 3 9.33214 11.0822 4.16179 -0.000975408 0.00553842 0.00336054 
785 4 8.39128 10.9097 4.19716 0.0367307 0.0282205 -0.00815991 
822 3 11.127 9.14527 3.45295 0.00462995 0.00323421 -0.0021834 
823 4 10.6076 8.44816 3.85351 0.0179232 -0.00543779 -0.00374793 
824 4 10.5921 9.93237 3.55555 -0.0184822 0.00474295 0.0291748 
849 3 6.39613 6.9865 4.70774 -0.00591299 0.00259335 0.00718468 
850 4 5.94806 6.64407 3.93431 0.0207692 -0.00731595 0.00406214 
851 4 6.89508 7.73636 4.38371 0.00107361 -0.0213111 0.00308425 
854 4 10.0515 6.09512 0.946789 -0.0143467 -0.021915 0.00312897 
21 3 14.2115 10.2682 2.49467 0.00564212 0.00123998 -0.000455056 
22 4 14.7761 9.64064 2.94602 0.00533684 0.00772628 -0.0131942 
23 4 14.0573 9.87703 1.63478 0.0205537 -0.0149867 -0.0140096 
339 3 11.6105 7.87405 0.954552 0.0104477 0.00381655 0.00100126 
340 4 11.7927 8.11204 1.86361 -0.00735319 0.0204271 0.0398979 
342 3 12.6606 6.57684 4.38505 -0.0023747 0.004936 -0.00230574 
343 4 13.2329 7.20021 4.83231 -0.0141816 0.0155253 0.00866144 
344 4 13.2539 6.04196 3.85769 -0.0309122 0.0012645 0.0229094 
503 4 14.9325 10.9046 5.20425 -0.00153085 0.0142814 -0.00685893 
1011 3 14.7766 8.68924 0.483237 -0.00476009 -0.000159957 0.00143044 
1086 3 16.3231 6.05191 1.34087 -0.000272458 0.00349112 -0.00758465 
1087 4 16.0711 6.9438 1.10164 -0.0276706 0.00805577 -0.0096306 
1088 4 16.3702 5.58404 0.507138 0.00406283 0.00715203 0.0120629 
1095 3 15.7481 8.68121 4.03913 0.00211101 -0.000828173 -0.00239671 
1096 4 16.6165 8.99732 4.28863 -0.0117545 -0.0199914 0.0241537 
1097 4 15.6508 7.85218 4.50759 0.00417014 -0.00139414 0.00628857 
54 3 22.2669 5.67066 2.33927 -0.000284654 -0.00576956 -0.00721108 
129 3 19.8153 6.67248 2.65139 -0.00295321 0.00438876 0.00450544 
130 4 20.7497 6.58176 2.46456 -0.0177001 -0.00846758 -0.0095249 
131 4 19.4876 7.24951 1.96158 -0.0192059 -0.000785932 0.0067316 
201 3 17.9891 10.0973 5.67805 0.00499525 0.00363013 0.00255496 
378 3 17.9169 5.65467 4.66124 -0.00149694 0.00217044 0.00919047 
379 4 17.2611 6.10223 4.12657 -0.0187912 0.0196639 0.0289854 
380 4 18.5672 6.32899 4.85771 0.00820976 0.00303185 -0.00796993 
600 3 21.1055 10.8168 5.30297 -7.32404e-05 0.00593363 0.00764494 
602 4 21.6947 10.7219 4.55463 -0.0124829 0.0257478 -0.0027033 
622 4 22.708 8.30814 1.02014 0.0220788 -0.00114826 0.0299401 
810 3 18.3085 8.30035 0.51521 0.00240371 0.000786751 0.00431506 
811 4 17.7275 9.00727 0.23407 -0.0267159 -0.0223939 0.0012793 
969 3 19.5695 7.86184 5.23331 0.00642431 0.00377749 0.00304343 
970 4 19.6748 7.4656 4.36837 -0.0254619 0.0158286 -0.00423876 
971 4 19.3333 8.77181 5.05327 0.0409328 0.00203608 -0.0158433 
68 4 4.35937 16.6619 4.52755 -0.00914723 -0.022244 -0.012107 
155 4 5.68611 13.0449 3.92362 -0.0261964 -0.000964589 -0.0287492 
165 3 0.514014 11.8802 1.02199 -0.00311097 -0.00450417 -0.000658944 
167 4 1.36334 12.2514 0.782955 -0.021164 0.00350506 -0.000142894 
219 3 0.754931 14.6065 2.87501 0.00272259 -0.00188429 0.000875635 
220 4 0.877241 15.526 3.11104 -0.0152259 0.0269996 0.00576423 
540 3 1.18328 14.0123 5.74909 0.00136321 0.00161787 -0.00141643 
541 4 0.358116 14.2589 5.33133 -0.0140273 -0.00786168 -0.013141 
542 4 1.84309 14.1313 5.06592 -0.0216302 0.0158161 0.0168702 
732 3 5.70452 12.4697 5.6311 -0.00566742 -0.00210422 0.00249649 
760 4 4.20032 16.0809 1.17747 0.0186735 -0.00670465 0.00550387 
761 4 2.84622 16.5554 1.66033 0.0151291 -0.00361037 0.00789224 
766 4 2.75539 11.1683 1.81052 -0.0247949 -0.0218326 0.00195823 
816 3 5.21709 14.9394 0.8178 0.000376122 -0.00154434 -0.00013916 
818 4 5.57705 14.7428 1.68267 -0.00273734 -0.00622714 0.0204527 
84 3 8.07495 11.2318 0.423929 -0.00718082 0.00390238 0.00418148 
85 4 7.19908 11.4716 0.726579 0.0107875 -0.0138877 0.00337173 
153 3 5.87635 13.1346 2.98982 0.00466347 0.00427864 0.0017287 
154 4 5.87948 12.2367 2.65819 0.00906856 0.00762241 0.0422878 
304 4 10.3751 13.8511 5.05485 -0.00431354 0.0196254 0.00904541 
465 3 9.05264 15.7186 1.78127 0.00542866 -0.000870794 0.000838046 
466 4 8.57945 16.0973 2.52214 0.0221668 0.0157583 -0.0348395 
467 4 8.67757 14.8439 1.67876 -0.00410647 0.00948795 -0.020542 
784 4 9.52534 11.5292 4.98588 -0.0127918 -0.00494448 0.012192 
817 4 5.98379 15.0096 0.249048 -0.0160064 0.0117596 0.000108459 
831 3 7.44742 15.8457 4.04384 0.00110965 0.00164859 0.00593572 
832 4 7.45818 15.0402 4.56092 0.0535453 -0.0273725 -0.000220794 
833 4 6.51816 16.0361 3.91563 -0.00263194 0.00516188 0.00672094 
863 4 10.2271 16.7122 0.863589 -0.0146245 0.0129069 0.00520769 
954 3 10.482 11.5786 1.36235 0.000632644 0.00414652 0.00564826 
955 4 10.1803 11.2179 2.1961 -0.0219498 -0.0282153 0.0161275 
956 4 9.68073 11.7203 0.858232 0.000953222 -0.0173506 0.000825661 
171 3 15.9699 14.4728 4.2574 -0.000281882 -0.000844827 -0.00617971 
172 4 16.0193 13.886 3.50276 -0.00153463 0.0213982 -0.000165046 
173 4 16.3743 13.98 4.97144 -0.00744177 -0.0234381 0.00225887 
194 4 12.7417 14.6562 0.741295 0.0155161 0.0146127 0.0353256 
282 3 15.7002 12.5103 2.45725 0.00539094 0.00125567 -0.000330653 
283 4 15.2052 11.7035 2.59949 0.029669 -0.00719686 -0.0198214 
284 4 16.4393 12.245 1.90993 -0.00550347 -0.00135661 0.01045 
312 3 12.9971 13.1297 1.86424 0.00646702 0.00493875 0.00460629 
313 4 12.3609 12.4192 1.78312 -0.0248739 0.000173222 0.0145112 
314 4 13.8422 12.7165 1.68728 -0.000611807 0.00295079 0.0142931 
501 3 14.3124 11.6138 5.03478 0.00451355 -0.00112029 -0.000201896 
502 4 13.9944 11.4477 4.14738 -0.0011323 -0.0241259 0.0225205 
729 3 12.8331 14.106 4.55547 -0.0016427 -0.0036336 0.00709515 
730 4 13.7765 14.1008 4.71726 0.00896829 0.00609292 -0.0313683 
731 4 12.7497 13.9406 3.61636 0.0155429 -0.0129795 -0.00447743 
754 4 15.027 16.1991 4.55783 -0.00344222 0.0129543 0.0173518 
862 4 11.599 16.6266 0.229209 0.00371447 -0.00282966 0.00881934 
43 4 18.2422 13.0916 5.10894 0.028912 0.0193914 -0.00211795 
102 3 20.053 12.4379 3.43003 0.00279594 0.00344654 -0.000482184 
103 4 20.3002 11.8907 4.1755 -0.0100549 0.0113569 -0.0178876 
104 4 20.7265 12.2654 2.77201 -0.00492976 -0.0232496 -0.0205735 
159 3 21.1986 16.4783 2.42187 0.00884211 -0.00418399 -0.00653721 
160 4 20.2632 16.3191 2.54816 0.0136383 -0.0007089 0.0379193 
161 4 21.3118 16.5024 1.47169 -0.0336851 0.0179963 0.00883252 
166 4 22.5899 12.2261 0.366736 0.00928889 -0.011353 -0.0282272 
221 4 22.5303 14.4154 3.11596 0.00891221 -0.014429 0.00585423 
348 3 21.2824 14.5689 4.62114 0.00197607 -0.00424299 -0.0032788 
349 4 20.6696 15.2742 4.41311 -0.0137158 -0.00942269 0.010215 
350 4 20.8929 13.7885 4.2269 0.0110302 -0.0164682 -0.00729434 
423 3 18.0588 11.8043 1.48701 -0.00271122 -0.0118352 0.00194524 
424 4 18.5082 11.5248 0.689382 -0.0274895 0.0158262 0.014833 
425 4 18.7599 11.9259 2.12732 -0.0142723 0.00874191 -0.00160126 
815 4 18.685 14.1538 0.0938028 -0.0244813 0.0240678 -0.00566083 
945 3 17.9788 16.4058 3.43818 0.00866302 -0.00158668 -0.003639 
946 4 17.3919 15.9268 4.02328 0.00290855 -0.00390466 0.00142136 
947 4 17.5476 16.3708 2.58434 -0.0114771 0.0219193 -0.0288464 
66 3 4.7415 17.5336 4.42549 0.00631011 0.0011365 -0.00532087 
67 4 5.6149 17.4593 4.81003 0.020171 -0.0179236 -0.0266278 
168 3 3.1025 22.2423 3.3993 -0.000130981 0.00596357 0.00320658 
169 4 2.46248 21.548 3.55604 -0.0347982 0.017676 0.0222113 
170 4 3.52328 21.9991 2.57466 -0.0333423 -0.00225607 -0.018226 
186 3 0.323258 21.0438 0.541505 -0.00253102 -0.00108723 9.19823e-05 
270 3 1.39689 16.9654 3.47543 -0.00136069 8.32457e-05 -0.0020571 
271 4 1.13459 17.7681 3.02478 0.000598624 0.00484261 0.00802434 
272 4 1.54026 17.2353 4.38252 0.00347557 -0.00589617 -0.00100053 
450 3 0.781446 20.5816 3.21233 -0.0105839 0.00505112 -0.00200456 
451 4 0.184011 19.837 3.28163 -0.0092939 0.00412083 0.024589 
452 4 0.731454 20.8447 2.29334 -0.00256336 0.0170415 -0.0348334 
648 3 4.93312 19.7924 3.0535 0.000255374 -0.00526788 0.00664123 
649 4 5.76153 19.4256 2.74466 -0.00710409 -0.00322479 0.00687168 
650 4 4.51028 19.0713 3.51973 0.0146479 0.0108404 -0.0105766 
744 3 4.20682 19.4856 0.197371 -0.00225286 0.00468118 -7.2831e-05 
745 4 4.48715 19.7527 1.07279 -0.00928316 0.000999705 -0.0376434 
746 4 4.06467 18.5417 0.268399 0.0184881 0.0160265 0.0097058 
759 3 3.66609 16.8687 1.27839 0.00614537 0.00186719 0.00561423 
800 4 3.51513 17.9334 5.55443 0.032338 0.0263113 -0.0076214 
120 3 6.76727 21.5984 4.0945 -0.00183344 -0.00712656 0.00830449 
121 4 5.95776 21.1129 3.9357 0.010756 -0.00723127 -0.0091187 
122 4 7.32739 21.3814 3.34924 -0.00963058 -0.00346554 0.00957202 
144 3 10.878 20.0166 5.5322 -7.66745e-05 0.000368114 -0.00690766 
145 4 10.0132 20.3445 5.28553 -0.0304178 -0.0198124 -0.0131609 
146 4 10.7491 19.0777 5.66715 0.0121673 -0.0194759 0.0161364 
204 3 8.8661 18.0883 4.48678 -0.00207783 -0.0040841 -0.00177159 
205 4 8.43813 17.3555 4.04402 -0.00156868 0.0108847 0.00241202 
206 4 8.58745 18.0131 5.39943 0.000732007 0.00426291 0.00374373 
399 3 9.22289 21.2779 2.65383 0.00095871 -0.000864388 0.000574123 
400 4 9.39281 22.207 2.80922 -0.015351 0.0159079 0.00604105 
401 4 9.76608 21.0579 1.89701 0.0351508 -0.0125013 0.00743853 
861 3 10.969 17.251 0.589006 0.00710128 0.00847732 -0.00476955 
972 3 7.82391 18.7736 1.86103 0.000471992 -0.00546048 -0.00498803 
973 4 8.02259 19.1172 2.73207 0.0129434 -0.0105961 0.00668606 
974 4 8.68012 18.6433 1.4534 0.00159027 -0.0079834 -0.00597812 
990 3 10.7491 20.2231 0.508137 -6.28848e-05 -0.000245831 0.000531386 
992 4 10.9394 19.3446 0.837099 -0.00827107 0.00269951 0.00780009 
63 3 16.4153 20.7075 0.357302 -0.00215401 -0.00220175 -0.00736375 
65 4 15.6907 20.1454 0.631518 0.0308301 -0.00177964 -0.0299448 
82 4 15.7054 18.1339 5.71207 0.00930022 -0.0280785 -0.0171787 
195 3 15.2063 21.2444 4.23874 -0.00304044 0.000290066 -0.00254839 
196 4 16.0361 21.7152 4.16087 0.0116399 -0.00184796 -0.0145321 
197 4 15.4181 20.343 3.99606 -0.0117018 -0.0168219 0.00555365 
432 3 16.4802 17.4626 1.05239 -0.00504532 -0.00141537 -0.00261899 
433 4 16.0205 18.0657 1.63644 0.00172889 0.0165619 0.00795913 
434 4 15.843 17.2588 0.367853 -0.00749319 0.00391032 0.015343 
477 3 14.6249 19.3594 1.98158 0.00523297 -0.00116185 0.000499601 
478 4 13.8212 18.8979 2.22075 0.00175978 -0.00745278 -0.0137421 
479 4 14.4451 20.2768 2.18706 0.000794292 -0.0289463 -0.0107721 
753 3 14.7428 17.0754 4.8176 -0.00206011 -0.00337228 -0.00106109 
755 4 14.1174 17.3353 4.14115 0.0222264 0.0152194 -0.014751 
901 4 13.9338 20.9926 5.47897 -0.00371294 0.00522832 0.0123506 
991 4 11.606 20.587 0.28597 0.00958176 -0.0233663 -0.000731342 
1002 3 12.573 17.5666 2.82106 -0.0031512 0.000705699 -0.00336885 
1003 4 12.0605 17.3894 3.60985 0.0239973 0.00244194 -0.0079269 
1004 4 11.9516 17.4564 2.10136 -0.000175574 0.0241324 -0.0174546 
187 4 22.3914 20.3582 0.278007 0.0125343 -0.0275716 0.0203617 
213 3 18.9072 21.3064 0.666897 0.00226004 -0.000253808 -0.00626292 
214 4 17.9509 21.3119 0.707699 -0.000859945 0.00842892 -0.0177547 
215 4 19.1841 21.0894 1.55711 0.0119743 0.00878174 -0.0358152 
228 3 21.7635 18.549 4.11059 0.00352368 0.00363252 0.00544106 
229 4 21.537 18.1158 4.93351 -0.00382629 0.0179172 0.021115 
230 4 21.6414 17.8744 3.44262 0.00584505 0.00359436 0.0160502 
255 3 18.6808 18.6435 4.72598 -0.00633304 0.000466369 -0.00495294 
256 4 18.5042 17.8411 4.23489 0.0189788 0.00494632 0.0295758 
257 4 17.881 18.7983 5.22853 0.0251772 0.0127807 -0.0035242 
462 3 18.9344 20.931 3.34871 0.00230567 0.0032422 0.0018956 
463 4 19.8249 21.0371 3.68344 -0.00230214 0.0171823 0.00436446 
464 4 18.6928 20.0364 3.58876 -0.00517564 -0.00777202 0.0195692 
482 4 21.9119 22.2277 1.37668 0.0128225 0.0155788 -0.0203774 
485 4 17.9601 22.023 3.94771 0.00664609 0.00507504 -0.0151814 
654 3 21.5059 18.8425 0.104683 0.00409644 0.000513702 -0.00415618 
656 4 20.6967 19.067 0.563995 -0.00286647 0.0155415 0.0269781 
705 3 19.1516 17.968 0.754365 -0.00200014 -0.00235929 0.000136988 
706 4 19.311 17.1695 0.251282 -0.009093 -0.0129376 -0.0191187 
707 4 18.2366 17.901 1.02736 -0.0164109 0.0144493 0.000376435 
768 3 21.3327 22.0223 4.35481 -0.00372923 -0.0122977 -0.00339235 
770 4 22.0673 21.4374 4.16855 0.00273478 -0.0191152 -0.00750496 
48 3 2.39335 -0.137447 10.5768 0.0044244 -0.000660994 0.00157163 
49 4 2.81167 0.454994 9.95212 0.00568952 0.00620094 -0.00336851 
111 3 4.09121 1.09523 8.59572 0.000920104 0.00117963 0.00109341 
112 4 3.65185 1.15053 7.74711 -0.00315006 -0.0177489 -0.0161142 
113 4 4.4672 1.96543 8.72846 -0.0205385 -0.0114274 -0.0193842 
525 3 2.59424 4.42784 11.3123 8.93972e-05 0.0061936 -0.000702098 
527 4 2.44707 4.67175 10.3984 -0.00818665 0.00544799 -0.00170918 
627 3 0.581354 5.11189 6.95112 -0.00323264 0.00389803 -0.00723073 
628 4 1.22863 4.75413 6.34344 0.0198626 -0.0067368 0.0262889 
629 4 1.05862 5.22016 7.77376 -0.00104306 0.0257881 -2.3852e-06 
698 4 0.256058 2.42915 7.64479 -0.000490634 0.00381306 -0.0134229 
864 3 4.29959 3.35562 5.91657 0.00143117 -0.00276826 0.00558247 
865 4 5.1479 2.91776 5.84682 -0.00592301 0.0136155 0.0148787 
870 3 3.44608 0.45381 5.85519 -0.00084799 -0.00138383 -0.00102162 
888 3 5.25775 3.57027 9.20039 -0.000306142 -0.000168951 -0.00191332 
889 4 5.34849 3.95151 10.0737 -0.01251 0.000947594 0.0267097 
978 3 3.16073 5.3913 8.25667 0.0039008 -0.000389192 0.0042559 
980 4 3.44307 4.546 7.90742 -0.00291997 -0.0245087 -0.00575579 
1140 3 1.20377 2.1171 5.8766 -8.95841e-05 0.00425265 0.00226501 
1141 4 1.95524 1.52752 5.81397 0.00595445 0.0251 -0.0032228 
61 4 10.9643 3.01316 10.9786 0.0192002 0.0241027 0.00133439 
162 3 7.86145 3.52665 8.35356 0.00139084 0.00524376 0.00115472 
163 4 8.09703 3.43173 9.27645 -0.014346 -0.00538873 0.01116 
164 4 8.19991 4.38733 8.10678 0.0284381 0.00574763 0.0138785 
411 3 6.57344 1.79707 6.05553 -0.00110341 0.0015196 -0.00262802 
412 4 7.26358 2.13474 6.62642 -0.0026076 0.00628476 0.00502135 
644 4 8.69724 0.379476 10.4534 -0.00104114 -0.00240607 0.0218178 
855 3 9.2237 0.276591 7.39343 0.00636745 -0.00593188 0.00450554 
856 4 10.0114 0.0865147 7.90296 -0.00090455 0.03094 -0.0149941 
857 4 9.51103 0.908089 6.73397 0.0338833 0.0109237 -0.0152541 
890 4 6.07767 3.0971 9.05871 -0.00539519 0.0175393 -0.0194568 
891 3 10.2132 4.8117 10.8494 -0.00484711 -0.00428032 0.00259961 
892 4 10.0499 5.06564 9.94105 -0.0173487 -0.013168 0.0104331 
893 4 9.56794 5.30465 11.3561 -0.00411699 -0.0228272 0.00400059 
1062 3 8.30237 2.21255 11.0391 -0.0019718 0.00418308 0.00793498 
15 3 15.0056 4.51992 6.49361 -0.00124623 0.00366957 0.00345225 
16 4 15.2116 3.65383 6.14195 -0.0117277 -0.0265313 0.00662671 
17 4 15.4776 4.55972 7.32537 -0.0263648 -0.0110241 -0.0370964 
60 3 11.5533 2.25884 10.9617 0.00315308 -0.00328096 -0.00355506 
301 4 15.5107 1.17904 5.98596 -0.0113027 -0.00770424 -0.00224329 
306 3 12.5778 3.53383 7.81177 0.0018039 -0.00366241 0.00217714 
307 4 13.4934 3.25463 7.80434 0.00180286 -0.0283678 0.00226574 
308 4 12.1765 3.02192 8.514 -0.0230454 0.0141008 -0.00446128 
671 4 15.2634 0.26263 7.7222 0.00303297 -0.0147429 -0.00708381 
1006 4 11.9421 3.88869 5.99732 0.0168941 -0.00942875 -0.00700833 
1043 4 16.7663 2.95094 11.1112 -0.0039556 0.0128791 0.00758363 
1107 3 16.1525 5.10628 11.1679 -0.00210221 0.00236494 -0.000774873 
1143 3 13.9145 0.85029 9.28378 -0.00228201 0.00567889 -0.000354476 
1144 4 13.0535 1.06005 9.64562 0.00998886 -0.0167416 0.00349425 
1145 4 14.4029 0.48611 10.0221 -0.0233007 0.0063892 0.0256694 
224 4 22.2267 2.77823 11.0445 -0.00218988 -0.0100774 0.00396706 
225 3 21.4054 4.84002 10.0532 -0.00283521 0.00244341 0.00413786 
227 4 20.6215 4.31232 10.206 0.0126632 -0.0150741 0.0238848 
555 3 22.4329 -0.0418242 9.91468 -0.00985048 -0.00181002 0.00522572 
556 4 22.1501 0.815044 9.59523 0.0140702 -0.0125274 0.0258623 
696 3 22.0839 2.34867 8.06955 -0.00820337 -0.00676342 0.00201312 
697 4 21.4844 2.82525 7.49534 0.0125941 -0.0257783 0.01155 
778 4 17.46 5.36723 8.4977 0.0108316 0.00213295 0.0089232 
876 3 18.0143 3.3244 6.1731 0.00574727 -0.00774638 0.00093764 
878 4 18.9603 3.20327 6.09124 0.00945718 -0.00866642 0.00747199 
936 3 20.6284 3.85446 6.29727 -0.000838722 0.00418863 -0.00230468 
938 4 21.4457 4.27704 6.56104 -0.0111969 0.00116497 -0.0246334 
1014 3 18.7603 4.09316 9.07515 0.00151193 -0.000882541 -0.0030276 
1015 4 18.3619 3.24924 8.86228 -0.00137812 0.0218101 -0.0236156 
1016 4 19.4808 4.18254 8.4514 0.0132362 0.00203478 0.00499274 
1056 3 20.0286 0.450459 6.68006 -0.00629591 -0.00199785 0.00762796 
1057 4 20.5766 1.20927 6.88031 0.0228014 0.0374292 -0.0133098 
1058 4 20.4175 0.0753288 5.88997 -0.00233595 0.00885829 -0.00318553 
316 4 1.63574 8.59669 5.77974 -0.0220997 0.0361164 0.0203369 
360 3 0.740246 10.909 10.9023 0.00431643 0.00446936 -0.00208246 
567 3 4.56772 7.40807 9.74527 0.0023645 -0.00141044 0.00777554 
568 4 5.2034 7.59943 9.05568 -0.00989161 0.000507087 0.0139719 
569 4 3.96326 6.78156 9.34733 -0.00630764 0.0164814 -0.00872893 
639 3 3.45557 9.89543 9.36147 -0.0035053 0.000847343 -0.00609869 
640 4 4.05325 9.16323 9.51277 0.00479936 -0.00946566 0.00914444 
641 4 2.77449 9.79049 10.0258 -0.0344563 -0.00449646 0.00545793 
789 3 3.87641 6.90355 5.81805 0.00137906 0.000809332 0.00322211 
927 3 4.14693 10.3453 6.63072 -0.000858886 -0.00305995 0.00599061 
928 4 3.44178 10.0303 6.06524 0.0010001 0.00425591 0.00215963 
929 4 3.92077 10.0179 7.50131 -0.00730949 -0.0164802 0.00843921 
979 4 3.45132 6.02936 7.605 0.0083835 0.020123 -0.00684688 
393 3 7.42554 6.34399 7.11893 0.00074896 0.0052605 -0.00721418 
394 4 6.61973 6.02052 7.52174 0.0137296 -0.0167893 -0.00976671 
395 4 7.13163 6.81635 6.34 -0.0129103 0.01166 -0.0267071 
495 3 8.49367 8.31132 11.1905 -0.00350706 0.000161304 -0.00130117 
496 4 7.88263 7.58716 11.0546 -0.000921209 0.0056859 0.00455734 
774 3 10.5838 7.80184 5.92472 -0.00633383 2.61371e-05 -0.00231389 
776 4 10.3782 8.50512 6.54065 0.00514529 -0.0128401 -0.0270091 
1083 3 9.05865 9.99037 8.94675 -0.00306377 -0.000989613 0.00453232 
1084 4 8.75913 9.17261 9.34397 -0.0164806 -0.00739381 -0.028339 
1085 4 9.76956 10.2869 9.515 -0.00129593 0.00843733 -0.0265758 
1119 3 9.70172 6.22731 8.33989 0.00397547 0.00333037 -0.00646976 
1120 4 10.1321 6.90103 7.81345 0.0135558 0.0117938 0.0334296 
1121 4 8.81874 6.16565 7.9755 -0.0109423 0.0116384 -0.0112202 
6 3 15.081 8.62657 9.68521 0.00232516 0.000107813 -0.00162213 
7 4 14.4839 7.96373 9.33843 -0.00685679 0.0124969 -0.00279927 
8 4 14.9246 8.62005 10.6295 -0.0130389 -0.00681703 -0.00907148 
24 3 14.0605 10.9856 9.46018 0.000703217 -0.0025191 -0.00333879 
25 4 14.4087 10.0976 9.54064 0.0119739 0.0123885 -0.026935 
37 4 17.1597 7.40963 7.79613 0.0145849 -0.0238143 0.0114429 
38 4 16.4602 8.73533 8.00858 0.0221581 0.0147137 -0.0121799 
318 3 12.0489 10.4204 6.65247 0.00220467 8.54764e-05 -0.000395546 
319 4 11.7155 11.044 7.29769 0.0174111 0.00997438 -0.000636721 
320 4 12.754 10.8901 6.20692 0.00256292 -0.012368 0.0105962 
409 4 13.1179 6.01228 11.1292 -0.0134982 -0.00344006 -0.0148377 
471 3 13.5916 6.60444 9.16283 0.00587898 0.0101074 0.000675766 
472 4 12.7253 6.31073 8.88085 0.00283843 0.0243739 0.00354425 
473 4 14.2019 6.12156 8.60551 -0.0142203 -0.0028689 0.00559629 
651 3 14.8919 7.30631 6.06608 0.00495022 0.00302325 0.00172159 
652 4 15.0242 6.36691 6.19352 0.00224398 0.0129806 0.0208988 
653 4 14.5345 7.61351 6.89924 -0.00727934 -0.0113143 0.0106618 
777 3 16.6637 5.89654 8.5424 0.00116153 0.0023075 -0.000827766 
779 4 16.5648 6.10328 9.47177 0.0100451 -0.00813751 0.0248136 
36 3 17.2498 8.3481 7.63061 0.00203916 0.00196298 0.00276584 
202 4 18.6217 10.6522 6.13431 -0.00645584 -0.0167706 -0.00740408 
203 4 17.4928 9.67347 6.37822 0.0120565 -0.00946559 0.025045 
226 4 21.0961 5.58586 9.53907 -0.00235067 0.00227005 -0.00108294 
294 3 21.7946 9.52391 8.6896 -0.0024247 -0.00532431 -0.00226483 
295 4 21.3185 10.1547 9.22963 0.00845831 0.0165757 0.0185287 
296 4 22.5734 9.99758 8.39747 0.0168535 -0.0105536 0.000992198 
396 3 18.7476 7.08952 10.8396 0.000811619 0.00570304 1.27258e-05 
397 4 19.222 7.15402 10.0107 0.00661331 0.00436844 0.0176583 
398 4 18.3502 7.95243 10.9564 0.00396639 0.00902217 0.00500514 
417 3 20.4498 6.89128 8.56742 0.0055895 -0.0047247 -0.0073444 
418 4 19.6783 7.23122 8.1141 0.0194091 -0.0127978 -0.00975815 
419 4 21.0423 7.64063 8.62774 0.0137558 -0.0132796 0.00130881 
468 3 18.149 9.98245 10.5421 -0.000219817 -0.000648669 -0.00192056 
469 4 17.4332 9.96253 9.90692 0.00275906 0.00442871 0.00890623 
470 4 17.7341 10.2475 11.363 0.0127752 -0.00784957 -0.00328132 
601 4 21.3119 10.0714 5.86698 0.014744 0.0308006 -0.002312 
903 3 22.2333 7.97218 6.26617 -0.00796117 -0.00120376 0.0015958 
904 4 21.3993 7.62398 5.95079 0.0208999 -0.0362788 0.00130562 
905 4 22.6167 7.25557 6.77183 0.019966 0.0109795 -0.00116216 
39 3 4.26293 12.8384 9.15976 -0.00388218 -0.00393185 -0.00420478 
40 4 3.45111 13.3128 8.98042 0.00875102 -0.00862616 0.0164824 
41 4 3.97783 11.9562 9.39779 -0.03289 -0.000919133 -0.000696473 
108 3 0.565482 11.6034 7.33263 0.00183863 0.00192941 0.00883331 
109 4 0.966429 12.4549 7.15822 -0.0130337 0.00775774 0.00723716 
362 4 0.607788 11.8482 11.0314 -0.0171825 0.00284023 -0.0108201 
363 3 3.86802 15.9349 9.59908 -0.00826417 0.00335346 -0.00309999 
364 4 4.61952 15.7926 9.02354 0.0041367 0.00833545 0.00341274 
365 4 3.10652 15.7477 9.05015 -0.00578154 0.00189642 -0.000509418 
376 4 3.36597 14.3878 11.0507 -0.0143092 -0.0149889 0.0141986 
498 3 1.91808 15.9061 7.67057 -0.003859 -0.00179243 7.72293e-05 
499 4 1.78541 16.6841 7.12905 -0.000737584 -0.00661872 0.0274065 
500 4 1.67867 15.1742 7.10194 -0.00386712 0.00597177 -0.0212512 
549 3 0.959815 15.8508 10.4953 0.000910891 0.00280202 -0.0064589 
550 4 0.818975 16.0808 9.57687 -0.0131069 -0.0161023 0.0273409 
551 4 1.6267 16.4673 10.7976 -0.0148227 -0.0247009 0.0121159 
734 4 5.17422 11.8564 6.13994 0.00472965 -0.0164191 0.0259348 
807 3 4.68093 15.1193 6.19631 -0.00353641 -0.00562578 -0.00171881 
808 4 4.68486 14.1828 5.99819 -0.0279723 0.00685323 0.00175269 
809 4 5.3618 15.2269 6.86043 -0.00648313 -0.00903038 -0.0258354 
303 3 10.0441 13.9192 5.95044 -0.00221321 0.000529822 -0.00467647 
305 4 10.8215 14.0943 6.48086 -0.00720837 0.0147528 -0.0263439 
510 3 6.76036 13.1076 10.872 -0.000313821 -0.00701422 -0.00418711 
511 4 5.8826 13.137 10.4913 0.0195661 -0.0423344 0.0415555 
512 4 7.15875 13.9411 10.6212 0.00465228 -0.014765 0.00200756 
733 4 6.55613 12.4705 6.06812 -0.00508074 0.0259385 0.0320322 
781 4 10.943 12.877 9.18634 -0.0080487 0.0175238 -0.00554451 
792 3 8.18213 12.4883 7.27114 -0.00543075 -0.00233583 -0.00262478 
793 4 8.89883 12.9467 6.83244 0.026436 -0.00831651 0.021399 
794 4 8.61588 11.8403 7.82632 -0.00515312 -0.000690606 0.035277 
1098 3 8.14342 15.4868 10.5558 0.00588282 0.000644597 0.0072813 
1099 4 8.8397 16.1078 10.7698 -0.00534548 0.0317261 0.0041173 
1100 4 7.63533 15.4084 11.3633 -0.00605442 0.00630806 -0.00864025 
1134 3 6.57052 15.3058 8.24827 0.00370312 -0.00137904 0.00347968 