ITEM: TIMESTEP
0
ITEM: NUMBER OF ATOMS
96
ITEM: BOX BOUNDS pp pp pp
2.9236100000000000e+00 1.2773600000000000e+01
4.0306300000000004e+00 1.3880599999999999e+01
2.1372399999999998e+00 1.1987200000000000e+01
ITEM: ATOMS id type x y z vx vy vz
1 1 5.6579 4.14508 2.50285 0.00463938 -0.000228847 0.00367052
2 2 5.34419 13.1084 2.67826 0.00775285 0.0147061 -0.0109387
3 2 11.0441 13.3818 11.7249 0.00767181 -0.0197895 -0.0174938
4 1 12.6499 12.9189 11.4069 -0.00244522 -0.00367552 -0.00121345
5 2 12.6366 11.9809 11.0021 0.000365804 -0.00157799 0.00922673
6 2 3.43354 13.0554 2.27677 -0.0118707 -0.0229873 -0.00356658
7 1 11.6379 7.25192 3.85273 0.00100421 -0.000844161 -0.00172497
8 2 10.805 7.15949 4.3418 0.00972616 0.00808836 0.00387794
9 2 9.7215 8.92886 7.71419 0.00254991 -0.00144417 -0.0244786
10 1 8.80539 8.75524 7.97763 0.00160869 0.000768423 -0.00230113
11 2 8.72842 7.82471 7.91328 -0.0186509 0.0100861 0.00812859
12 2 7.20351 9.83693 9.16432 -0.00695472 0.00369211 0.00193932
13 1 6.59984 9.00592 2.24621 -0.00945342 0.00266857 0.000142797
14 2 6.75702 9.42766 11.2556 0.0148883 0.026841 -0.00314679
15 2 5.76717 8.50675 11.8495 0.0184293 -0.0212845 -0.0293615
16 1 8.60679 7.22349 11.9817 -0.00298556 -0.00593199 0.00843144
17 2 8.88123 6.62999 3.71229 0.00371185 -0.0169224 0.00601074
18 2 7.77397 7.86955 2.27901 -0.0324035 0.0342426 -0.00480174
19 1 4.09151 7.57858 11.789 0.00766501 0.00173577 -0.00404348
20 2 3.27963 7.61277 2.46497 -0.00558828 -0.00998955 -0.00520881
21 2 12.1245 10.1031 11.1837 0.00691156 -0.00190024 0.0337817
22 1 10.3915 9.55343 11.9784 0.00328373 0.00160991 0.00548635
23 2 10.0168 9.76513 3.03945 -0.00677016 -0.00405644 -0.0043355
24 2 9.38572 7.83248 11.9601 0.00199095 0.0210929 -0.0309008
25 1 4.18854 8.50739 6.75142 0.00483865 0.00551607 0.0085014
26 2 3.68965 8.8885 5.9389 0.0187411 -0.00239193 2.40582e-05
27 2 12.4331 5.74297 4.21232 0.026285 -0.0172907 -0.0144611
28 1 8.95142 6.68595 4.70659 0.00629398 0.00301733 0.00362416
29 2 9.35789 5.93722 5.0922 0.00967825 0.00542371 0.00653768
30 2 7.50667 5.94126 4.9777 -0.0036099 0.00381031 -0.00306911
31 1 3.19182 9.66802 4.47453 -0.00605314 0.00355258 0.00267891
32 2 12.4311 10.2767 4.84309 0.0224973 -0.00581965 0.0240799
33 2 3.91729 10.305 4.21172 -0.00687222 -8.35686e-05 0.0332261
34 1 8.22844 5.39287 8.07804 0.000306975 -0.00260604 -0.00199666
35 2 8.57196 4.48715 7.80936 0.00801357 -0.0132585 -0.0067235
36 2 7.47306 5.31697 8.66402 0.0333125 -0.00347292 -0.00294013
37 1 8.93419 11.6781 10.4173 -0.00188189 -0.0025134 0.00207527
38 2 9.27576 11.9912 9.50711 -0.0123691 -0.00404924 0.00188546
39 2 9.91312 10.2208 11.4431 -0.00544409 0.00715723 0.0292691
40 1 12.1154 12.1495 5.17203 0.00468614 0.00165849 -0.00118795
41 2 12.5906 4.16255 4.56469 0.0202618 -0.0148668 0.0278708
42 2 11.2155 12.3551 5.03893 0.01016 -0.0150002 0.0135486
43 1 3.20185 4.94881 4.16546 0.00176391 0.00432955 -0.00496423
44 2 11.952 8.10904 4.18112 -0.0194798 0.00170233 -0.0345351
45 2 4.91798 4.60157 3.02932 0.00272942 -0.000792241 0.0101466
46 1 9.62939 12.5322 7.90769 0.00100872 -0.000713763 -0.00305567
47 2 9.01062 12.0286 7.37934 -0.0117225 -0.0133843 0.00434069
48 2 10.5217 12.135 7.83899 -0.0081651 -0.00965967 -0.0145986
49 1 10.3809 6.35679 9.79743 0.00479081 0.0027102 0.00376156
50 2 9.57219 6.40534 9.31347 0.00569011 0.00342929 0.0109616
51 2 10.2376 5.57681 10.3801 0.0149098 0.0191279 0.000668178
52 1 9.70515 9.55992 4.88205 -0.000710485 -0.00243691 -0.00141572
53 2 9.17586 8.78072 4.97358 0.0105403 0.00718059 0.00908671
54 2 9.09996 10.2164 5.36704 -0.00796934 -0.00488907 -0.00403742
55 1 4.65121 11.5126 2.96966 -0.00255283 -0.00723348 -2.11657e-05
56 2 5.35081 10.8799 2.82017 -0.0123861 0.00485628 0.0175696
57 2 4.11761 11.2263 2.20839 0.0150607 -0.0137079 -0.00173644
58 1 6.62597 10.5131 9.50634 -0.00113689 0.00535965 0.000215362
59 2 4.80615 12.1949 7.24036 -0.023583 0.0146158 -0.0227028
60 2 8.005 11.4214 10.1538 -0.0157257 -0.034211 -0.0219785
61 1 7.11855 5.26937 5.64687 -0.00293616 -0.00426162 0.00201756
62 2 7.58647 5.62642 6.55595 0.00994053 -0.0252535 0.0045876
63 2 5.69426 5.90422 6.05834 0.02512 0.00197391 0.00462858
64 1 5.29457 11.3364 7.19129 -0.0055885 -0.00196248 -0.00227457
65 2 4.65432 10.7332 6.86801 -0.0165742 -0.00483291 -0.0390265
66 2 12.2565 12.3223 6.14228 0.0221927 -0.0206765 -0.0238748
67 1 12.2017 11.7992 8.17978 -0.00454878 -0.00413439 -0.00542346
68 2 3.05236 12.4047 8.45595 -0.00851567 0.0120881 -0.00796703
69 2 12.374 10.9495 8.68476 -0.00498316 -0.0162519 -0.0224062
70 1 9.77871 4.1145 4.74518 0.00242662 0.0114984 -0.00060918
71 2 9.78831 13.8548 3.7357 0.00157093 0.0190959 -0.00261171
72 2 9.39117 13.1916 5.11502 -0.0155987 0.0172129 -0.0134796
73 1 11.7205 8.41477 8.16039 0.000360766 -0.00117561 -0.00071142
74 2 11.4042 7.81003 8.79681 -0.0139771 0.00443895 0.011881
75 2 12.6712 8.21653 8.00602 -0.00812725 -0.0231749 0.00294402
76 1 3.2184 5.51152 10.0807 -0.000685329 0.00424965 -0.00237461
77 2 12.1792 5.82951 9.77842 -0.00472222 0.0166452 0.0112933
78 2 3.9681 6.75436 11.2565 -0.0491512 -0.0081404 0.00101995
79 1 3.05575 10.2619 10.5874 0.00920264 0.00329955 0.00345857
80 2 3.54921 9.37994 10.569 0.0142869 0.00632886 0.036676
81 2 6.34601 10.9535 8.69724 0.00383025 -0.0128214 0.0113874
82 1 6.03798 5.71423 9.56055 0.000395973 -0.00423409 -0.00118102
83 2 5.11354 5.64034 9.24598 0.0119939 0.0367689 -0.0177895
84 2 6.06029 5.22941 10.3929 -0.02111 0.0113145 0.00219128
85 1 10.1026 13.642 11.8477 -0.00135226 -0.000620258 -0.00225497
86 2 9.51445 12.9769 11.3844 -0.0169785 0.00366374 -0.0175869
87 2 3.06457 4.84941 10.7637 -0.00377784 -0.0059087 -0.0163365
88 1 8.01498 11.9488 5.85068 -0.00797026 0.000265811 0.00406229
89 2 7.24387 11.6114 6.2895 -0.013247 -0.0188009 -0.000528425
90 2 7.69789 12.7789 5.49034 -0.014444 0.0059233 0.00322849
91 1 4.64768 5.83126 6.10076 0.00156737 -0.000348442 -0.00203732
92 2 4.15771 7.51766 6.63652 -0.0248061 -0.0101485 -0.0220525
93 2 4.32451 4.72991 7.25564 0.0154304 0.0111052 -0.00710697
94 1 4.11072 4.09567 7.9794 -0.00409798 -0.00446779 -0.00156538
95 2 3.5163 4.44668 8.62533 0.00700657 0.00396687 0.00176654
96 2 4.33691 5.35988 5.32561 0.0193944 -0.0147394 -0.0153284
ITEM: TIMESTEP
1
ITEM: NUMBER OF ATOMS
96
ITEM: BOX BOUNDS pp pp pp
2.9236100000000000e+00 1.2773600000000000e+01
4.0306300000000004e+00 1.3880599999999999e+01
2.1372399999999998e+00 1.1987200000000000e+01
ITEM: ATOMS id type x y z vx vy vz
1 1 5.66006 4.14508 2.50478 0.00403183 0.000268633 0.00403189
2 2 5.34911 13.114 2.67212 0.0117008 0.00724914 -0.0135057
3 2 11.0482 13.3715 11.7161 0.00795046 -0.0210211 -0.0177588
4 1 12.6486 12.9171 11.4062 -0.00261098 -0.00368018 -0.0015538
5 2 12.6376 11.9814 11.0079 0.00356497 0.00329323 0.0136717
6 2 3.42764 13.0427 2.27481 -0.0114494 -0.0277347 -0.00383069
7 1 11.6384 7.25149 3.8519 0.000971771 -0.000897273 -0.00162543
8 2 10.8096 7.16334 4.34342 0.0085403 0.00717268 0.00269977
9 2 9.7225 8.92773 7.70228 0.00122412 -0.00321871 -0.0230823
10 1 8.8062 8.75569 7.97647 0.0016233 0.00106116 -0.00232375
11 2 8.71911 7.82896 7.91732 -0.0184962 0.00666923 0.00796991
12 2 7.20061 9.83802 9.16506 -0.00453879 0.000504938 0.0010141
13 1 6.59504 9.00722 2.24627 -0.00970606 0.00252759 4.84955e-05
14 2 6.76514 9.44187 11.2535 0.0172897 0.0296068 -0.00453526
15 2 5.77686 8.49598 11.8358 0.0201072 -0.0217885 -0.0255466
16 1 8.60525 7.22062 11.986 -0.00318204 -0.00545136 0.00864502
17 2 8.88325 6.62113 3.71416 0.00433679 -0.0183275 0.00142029
18 2 7.75891 7.8857 2.27624 -0.0269552 0.0296202 -0.0063953
19 1 4.09531 7.57942 11.7869 0.00746479 0.00157454 -0.00419093
20 2 3.27709 7.60791 2.46259 -0.00413495 -0.00900845 -0.00421384
21 2 12.1288 10.1016 11.1999 0.0105626 -0.00396235 0.0304403
22 1 10.3931 9.55432 11.9812 0.00292031 0.00193828 0.00566639
23 2 10.0144 9.76227 3.03672 -0.00291881 -0.00744364 -0.00613204
24 2 9.38627 7.84274 11.9445 -0.000517066 0.0192701 -0.0314418
25 1 4.19089 8.51012 6.75561 0.00454181 0.00533615 0.00825013
26 2 3.69988 8.88682 5.93982 0.022061 -0.00398363 0.0036531
27 2 12.4464 5.73369 4.20503 0.026317 -0.019115 -0.0144833
28 1 8.95452 6.68766 4.70844 0.00609237 0.00378446 0.00379707
29 2 9.36367 5.93759 5.09527 0.0133064 -0.00374737 0.00575669
30 2 7.50409 5.94244 4.97614 -0.00653033 0.000853427 -0.00281952
31 1 3.18891 9.66978 4.47587 -0.00556416 0.00345543 0.00266079
32 2 12.4405 10.2748 4.85589 0.014384 -0.00172945 0.0273767
33 2 3.91379 10.3042 4.22799 -0.00669195 -0.00277568 0.0315735
34 1 8.22873 5.39158 8.07688 0.000896143 -0.00256828 -0.00266165
35 2 8.57536 4.48119 7.80696 0.00552416 -0.0103387 -0.00278277
36 2 7.48867 5.31457 8.66315 0.0284524 -0.00620685 -1.83879e-05
37 1 8.93322 11.6768 10.4182 -0.00204226 -0.00252406 0.00160507
38 2 9.27038 11.9894 9.50861 -0.00903276 -0.00318353 0.00410017
39 2 9.9108 10.2239 11.4575 -0.00385168 0.00544149 0.0277105
40 1 12.1178 12.1504 5.17153 0.00502263 0.0017516 -0.000885275
41 2 12.6008 4.15585 4.57827 0.0206656 -0.0114116 0.0261648
42 2 11.2196 12.3481 5.04568 0.00575647 -0.0130916 0.0134541
43 1 3.20271 4.95093 4.16296 0.00172317 0.00405866 -0.00501608
44 2 11.9427 8.11011 4.16358 -0.0174239 0.00312582 -0.035466
45 2 4.92108 4.60188 3.03332 0.00966423 0.00195266 0.0058569
46 1 9.62987 12.5319 7.90626 0.000886323 -0.000405327 -0.00270553
47 2 9.00434 12.0213 7.38049 -0.0131186 -0.0153977 0.000527183
48 2 10.5181 12.1298 7.83154 -0.00632172 -0.0109235 -0.0151337
49 1 10.3834 6.35809 9.79935 0.00506452 0.00253189 0.00389859
50 2 9.57439 6.40683 9.31865 0.00295582 0.00249968 0.0096973
51 2 10.2449 5.58715 10.3801 0.0141467 0.0216647 -0.000153995
52 1 9.70468 9.55882 4.88142 -0.00113186 -0.00192817 -0.00109903
53 2 9.18132 8.78355 4.9779 0.0110128 0.0036323 0.00820234
54 2 9.09749 10.213 5.36383 -0.00195142 -0.00843932 -0.00874199
55 1 4.64994 11.5089 2.96963 -0.00256053 -0.00750621 -9.55829e-05
56 2 5.34569 10.8821 2.82948 -0.00736493 0.00348679 0.0197134
57 2 4.1245 11.22 2.20761 0.0121063 -0.0116516 -0.00173757
58 1 6.62543 10.5158 9.50649 -0.000995057 0.00535075 0.000441331
59 2 4.79475 12.2013 7.2292 -0.0214887 0.0104503 -0.0218778
60 2 7.99673 11.4039 10.1439 -0.0165802 -0.035341 -0.0174202
61 1 7.11714 5.26736 5.64804 -0.00268385 -0.0037963 0.00264379
62 2 7.59037 5.61208 6.5569 0.00570987 -0.0317967 -0.00073751
63 2 5.7068 5.90449 6.0601 0.0244075 -0.00092653 0.00244169
64 1 5.2918 11.3355 7.19014 -0.00556506 -0.00151559 -0.00236633
65 2 4.64553 10.73 6.84841 -0.0177351 -0.00732968 -0.0389632
66 2 12.2672 12.3115 6.12925 0.0207498 -0.0221572 -0.0272361
67 1 12.1995 11.797 8.17708 -0.00444475 -0.00449591 -0.00536524
68 2 3.04815 12.4107 8.45195 -0.00847644 0.0115567 -0.00803082
69 2 12.3714 10.9426 8.67321 -0.00542748 -0.0110885 -0.023699
70 1 9.77999 4.12029 4.74479 0.00267871 0.0116735 -0.000945549
71 2 9.78908 13.8643 3.73523 0.00152456 0.0188824 0.000660425
72 2 9.38287 13.1996 5.10848 -0.0176297 0.0146339 -0.0126302
73 1 11.7207 8.41424 8.15997 0.000453017 -0.000980892 -0.000940869
74 2 11.3969 7.8113 8.80368 -0.0149765 0.00102697 0.0152133
75 2 12.6668 8.20525 8.00729 -0.00915231 -0.0219399 0.0021128
76 1 3.21805 5.51369 10.0795 -0.000719681 0.00444231 -0.00258819
77 2 12.1771 5.83765 9.78462 -0.00371597 0.0158841 0.0134342
78 2 3.9438 6.75091 11.2571 -0.0474399 -0.00532605 0.00135847
79 1 3.06035 10.2635 10.5892 0.00915346 0.00297789 0.00358848
80 2 3.55516 9.38452 10.5878 0.00967785 0.0119608 0.0384771
81 2 6.34717 10.9475 8.70248 0.000553136 -0.01053 0.00888594
82 1 6.03815 5.71213 9.55997 0.000314273 -0.00413676 -0.00114296
83 2 5.12009 5.65832 9.23759 0.0138739 0.035047 -0.015699
84 2 6.04934 5.23502 10.3941 -0.022782 0.0110388 0.00254176
85 1 10.1019 13.6417 11.8466 -0.00162169 -0.000455629 -0.00217019
86 2 9.50633 12.9787 11.3757 -0.0151963 0.00381166 -0.0171443
87 2 3.0623 4.84596 10.7556 -0.00523369 -0.00789666 -0.0159173
88 1 8.01102 11.9489 5.85269 -0.00788376 0.000160049 0.00398096
89 2 7.23645 11.6019 6.28942 -0.0160624 -0.0188553 -3.13255e-05
90 2 7.69046 12.7822 5.49215 -0.015203 0.00687836 0.00416791
91 1 4.64851 5.83124 6.09986 0.00178329 0.000235673 -0.00161196
92 2 4.14566 7.51363 6.62535 -0.0231398 -0.00546 -0.0222336
93 2 4.33208 4.73629 7.25197 0.0147322 0.0140739 -0.00716081
94 1 4.10872 4.09325 7.97862 -0.00392146 -0.00519364 -0.00157217
95 2 3.51921 4.45001 8.62703 0.00476003 0.00935172 0.00493138
96 2 4.34627 5.3516 5.31614 0.0182286 -0.0180114 -0.0219551
ITEM: TIMESTEP
2
ITEM: NUMBER OF ATOMS
96
ITEM: BOX BOUNDS pp pp pp
2.9236100000000000e+00 1.2773600000000000e+01
4.0306300000000004e+00 1.3880599999999999e+01
2.1372399999999998e+00 1.1987200000000000e+01
ITEM: ATOMS id type x y z vx vy vz
1 1 5.66193 4.14535 2.50688 0.00346813 0.000819066 0.00437089
2 2 5.35589 13.1156 2.66475 0.0151464 -0.000901631 -0.0158385
3 2 11.0521 13.3608 11.7071 0.0068453 -0.021793 -0.0177553
4 1 12.6473 12.9152 11.4053 -0.00279268 -0.00364762 -0.00190969
5 2 12.6402 11.9842 11.0158 0.0064914 0.00714624 0.0174474
6 2 3.42209 13.0277 2.27294 -0.0104512 -0.0320171 -0.00319992
7 1 11.6389 7.25102 3.8511 0.000931011 -0.000982101 -0.00156032
8 2 10.8135 7.16666 4.3445 0.00686618 0.00601589 0.00174515
9 2 9.72272 8.92564 7.69111 -0.000445461 -0.00528362 -0.0215424
10 1 8.80701 8.7563 7.97531 0.00165056 0.00139211 -0.00234848
11 2 8.70992 7.83138 7.92125 -0.0181653 0.00291631 0.00770641
12 2 7.19897 9.83743 9.16533 -0.00204116 -0.00288648 8.49342e-05
13 1 6.59013 9.00845 2.24626 -0.00986361 0.00241335 -0.000110172
14 2 6.77431 9.45727 11.2511 0.019034 0.0314995 -0.00457668
15 2 5.78728 8.48496 11.824 0.0213091 -0.0222925 -0.0220519
16 1 8.60361 7.21804 2.14039 -0.00341783 -0.00478789 0.00886181
17 2 8.88557 6.61166 3.71371 0.00491149 -0.0193432 -0.00301115
18 2 7.74701 7.89917 2.27261 -0.0199819 0.0236659 -0.00813761
19 1 4.09897 7.58015 11.7848 0.00714726 0.00132873 -0.00433673
20 2 3.2755 7.60376 2.46076 -0.00185558 -0.00716367 -0.0030474
21 2 12.1351 10.0991 11.2141 0.0149342 -0.00543769 0.0262694
22 1 10.3944 9.55537 11.9841 0.00256888 0.00224289 0.00582337
23 2 10.0139 9.75769 3.03332 0.000860392 -0.0108846 -0.00692599
24 2 9.3852 7.85175 11.9287 -0.00428357 0.0161743 -0.0316455
25 1 4.19308 8.51273 6.75967 0.00423271 0.0050454 0.00795809
26 2 3.71171 8.88452 5.94255 0.0250835 -0.00478252 0.00710845
27 2 12.4594 5.72385 4.19784 0.024751 -0.0193926 -0.0141185
28 1 8.95751 6.68973 4.71039 0.00587631 0.00446734 0.0039662
29 2 9.3712 5.93347 5.09796 0.016484 -0.0122048 0.00481482
30 2 7.50014 5.94211 4.97488 -0.008996 -0.00211199 -0.00196125
31 1 3.18626 9.67148 4.47719 -0.00508042 0.00331589 0.00264696
32 2 12.4455 10.275 4.87047 0.00560259 0.00248157 0.0309984
33 2 3.9106 10.3022 4.24329 -0.00572336 -0.00507204 0.0294196
34 1 8.22934 5.3903 8.07538 0.0015682 -0.00255742 -0.00337551
35 2 8.57748 4.47681 7.80658 0.00301533 -0.00704174 0.00126042
36 2 7.50151 5.31076 8.664 0.0224918 -0.0090232 0.00381381
37 1 8.93215 11.6756 10.4189 -0.00231225 -0.00256508 0.001104
38 2 9.26673 11.988 9.51121 -0.00551873 -0.00218895 0.00625677
39 2 9.90927 10.2262 11.4708 -0.00233665 0.0040746 0.0253257
40 1 12.1204 12.1513 5.17114 0.00539475 0.00182051 -0.00071706
41 2 12.6113 4.15114 4.59085 0.0211568 -0.00709138 0.0239566
42 2 11.2213 12.342 5.05238 0.000667245 -0.011053 0.0133994
43 1 3.20357 4.95287 4.16044 0.00179292 0.00361536 -0.00504589
44 2 11.9346 8.11217 4.14565 -0.0149115 0.005578 -0.0361342
45 2 4.92764 4.60352 3.03518 0.0163807 0.0044853 0.00167942
46 1 9.63028 12.5318 7.90498 0.000712146 -0.000153912 -0.00240537
47 2 8.9975 12.0132 7.37987 -0.0138787 -0.0166093 -0.00268099
48 2 10.5154 12.1241 7.82386 -0.00440976 -0.0120776 -0.0155495
49 1 10.386 6.35932 9.80133 0.0053625 0.00243655 0.00398996
50 2 9.57515 6.40784 9.32317 2.86099e-05 0.00154372 0.00833723
51 2 10.2517 5.59847 10.3799 0.013071 0.0229659 -0.000107489
52 1 9.70402 9.55799 4.88095 -0.0015071 -0.00139112 -0.00079087
53 2 9.18687 8.78435 4.98178 0.0109793 -0.000827592 0.00737671
54 2 9.09801 10.208 5.3583 0.00379083 -0.0115251 -0.0131561
55 1 4.64865 11.5051 2.96956 -0.00259853 -0.00770127 -0.000135723
56 2 5.34345 10.8834 2.83988 -0.00114256 0.0011907 0.0218886
57 2 4.12972 11.2146 2.20665 0.00853985 -0.00972972 -0.0023542
58 1 6.62497 10.5185 9.50678 -0.000817926 0.00530415 0.000747445
59 2 4.78466 12.2054 7.21848 -0.0184806 0.00510001 -0.0209164
60 2 7.98842 11.3861 10.1364 -0.0159269 -0.0359067 -0.0123558
61 1 7.11587 5.26557 5.64951 -0.00244129 -0.00334913 0.00318889
62 2 7.59218 5.59462 6.55521 0.00175905 -0.0376145 -0.00577922
63 2 5.71867 5.90329 6.06078 0.0224398 -0.00384757 0.000356854
64 1 5.289 11.3349 7.18892 -0.00570318 -0.00107371 -0.00252323
65 2 4.63658 10.7259 6.82905 -0.0172315 -0.00851621 -0.0380356
66 2 12.2772 12.3001 6.11504 0.019439 -0.0231579 -0.0284398
67 1 12.1973 11.7947 8.17441 -0.00434255 -0.00482387 -0.00532594
68 2 3.04388 12.4163 8.44792 -0.00868715 0.0104185 -0.00807854
69 2 12.3686 10.9384 8.66106 -0.00555554 -0.00583927 -0.0246932
70 1 9.78139 4.12617 4.74423 0.00292212 0.0118401 -0.00127012
71 2 9.78983 13.8737 3.73636 0.00154313 0.0186715 0.00370378
72 2 9.37354 13.2062 5.10239 -0.0196498 0.0121622 -0.0117315
73 1 11.721 8.41379 8.15945 0.000498204 -0.000838679 -0.00111171
74 2 11.3892 7.81106 8.81202 -0.0155091 -0.001502 0.0176039
75 2 12.662 8.19459 8.00813 -0.00991796 -0.020698 0.00128298
76 1 3.21768 5.51596 10.0781 -0.000767628 0.004632 -0.00280011
77 2 12.1755 5.84539 9.79185 -0.00254985 0.0151108 0.0154092
78 2 3.92066 6.74903 11.2579 -0.0445747 -0.00193526 0.00153046
79 1 3.0649 10.2649 10.591 0.00902941 0.00262747 0.00378775
80 2 3.55889 9.3919 10.6075 0.00552822 0.0172979 0.039908
81 2 6.34656 10.943 8.70613 -0.00318552 -0.00744823 0.00522909
82 1 6.03829 5.71009 9.55941 0.00029015 -0.00401637 -0.00112043
83 2 5.12741 5.67539 9.23028 0.0149963 0.0331306 -0.0135669
84 2 6.03751 5.24045 10.3954 -0.0246353 0.0105775 0.00311301
85 1 10.101 13.6415 11.8455 -0.00185129 -0.000362524 -0.002132
86 2 9.49925 12.9807 11.3673 -0.0128276 0.00455881 -0.0162162
87 2 3.05934 4.84151 10.7478 -0.00655353 -0.00986457 -0.0154444
88 1 8.0071 11.949 5.85466 -0.00785395 6.86316e-05 0.00391685
89 2 7.22781 11.5925 6.28947 -0.0180978 -0.0184286 -9.27631e-06
90 2 7.68269 12.7858 5.49451 -0.0157711 0.00715626 0.00545046
91 1 4.64946 5.8315 6.09915 0.00203275 0.000761447 -0.00127727
92 2 4.13457 7.5122 6.61429 -0.020958 1.18014e-05 -0.0215995
93 2 4.33924 4.74398 7.24848 0.0138305 0.0163292 -0.00639833
94 1 4.1068 4.09048 7.97783 -0.00375737 -0.00586073 -0.00162342
95 2 3.52106 4.45603 8.63026 0.00290906 0.0145908 0.00776053
96 2 4.35514 5.34187 5.30365 0.017488 -0.0203941 -0.0271759
ITEM: TIMESTEP
3
ITEM: NUMBER OF ATOMS
96
ITEM: BOX BOUNDS pp pp pp
2.9236100000000000e+00 1.2773600000000000e+01
4.0306300000000004e+00 1.3880599999999999e+01
2.1372399999999998e+00 1.1987200000000000e+01
ITEM: ATOMS id type x y z vx vy vz
1 1 5.66353 4.1459 2.50915 0.0029716 0.00138176 0.00467028
2 2 5.36426 13.1131 2.65628 0.0180525 -0.0090942 -0.0178885
3 2 11.055 13.3498 11.6983 0.00440541 -0.0220675 -0.0174484
4 1 12.6458 12.9134 11.4043 -0.00298057 -0.00356141 -0.00226731
5 2 12.6441 11.9886 11.0253 0.00903327 0.00966796 0.0203281
6 2 3.41719 13.0107 2.27161 -0.0089208 -0.035702 -0.00165605
7 1 11.6393 7.25051 3.85034 0.000886162 -0.00108933 -0.00152184
8 2 10.8165 7.16935 4.34516 0.0047829 0.00468578 0.00100303
9 2 9.72205 8.92245 7.68074 -0.0023059 -0.00757474 -0.0198998
10 1 8.80785 8.75708 7.97413 0.00167996 0.00173406 -0.00237404
11 2 8.70095 7.83188 7.92503 -0.0176554 -0.000802984 0.00736476
12 2 7.19857 9.83514 9.16515 0.000270038 -0.00614724 -0.000778483
13 1 6.58517 9.00963 2.24616 -0.0099235 0.00233232 -0.00033181
14 2 6.78417 9.47337 11.2489 0.0199995 0.0324007 -0.00323688
15 2 5.79817 8.47369 11.8138 0.0220479 -0.0227364 -0.0189558
16 1 8.60184 7.21583 2.14487 -0.00368137 -0.00398277 0.00907094
17 2 8.88816 6.60179 3.71115 0.00543842 -0.0198897 -0.00680402
18 2 7.73892 7.90937 2.2681 -0.0120381 0.0167381 -0.00986499
19 1 4.10246 7.58075 11.7826 0.00672607 0.00101429 -0.00447695
20 2 3.27524 7.60075 2.45955 0.00114169 -0.00453447 -0.00168295
21 2 12.1437 10.0961 11.2261 0.0196284 -0.00629761 0.0215207
22 1 10.3956 9.55656 11.987 0.00224317 0.00251252 0.00594233
23 2 10.0152 9.75139 3.02979 0.00440113 -0.0142535 -0.00658835
24 2 9.38199 7.85892 11.9128 -0.00889391 0.0120322 -0.0314819
25 1 4.19512 8.51516 6.76357 0.00392441 0.00466454 0.00764806
26 2 3.72496 8.88204 5.94693 0.0276293 -0.00461375 0.0100847
27 2 12.4712 5.71429 4.19091 0.0215978 -0.0180026 -0.0134086
28 1 8.9604 6.69213 4.71241 0.00566962 0.00502275 0.00411812
29 2 9.38015 5.92539 5.10009 0.0188688 -0.0193527 0.00342332
30 2 7.4951 5.94033 4.97418 -0.0108386 -0.00485243 -0.000676161
31 1 3.18383 9.6731 4.47851 -0.00464463 0.00316938 0.0026576
32 2 12.4461 10.2772 4.88689 -0.00304634 0.00630964 0.034482
33 2 3.90807 10.2992 4.25741 -0.00413303 -0.00692874 0.0268568
34 1 8.2303 5.38902 8.07351 0.00228493 -0.00256624 -0.00409814
35 2 8.57837 4.47415 7.80822 0.00062492 -0.00360135 0.00528412
36 2 7.51116 5.30554 8.66696 0.0159198 -0.0118074 0.00819839
37 1 8.93091 11.6743 10.4193 -0.00267489 -0.00263698 0.00058963
38 2 9.26486 11.9872 9.51486 -0.00200855 -0.00111667 0.00824737
39 2 9.90846 10.228 11.4828 -0.0009727 0.00312799 0.0222195
40 1 12.1232 12.1522 5.17081 0.00576531 0.00186625 -0.00069966
41 2 12.622 4.14876 4.60223 0.0216098 -0.00221359 0.0213728
42 2 11.2203 12.337 5.05908 -0.00460033 -0.00899609 0.0134423
43 1 3.2045 4.95454 4.15792 0.00198308 0.00301601 -0.00505776
44 2 11.9278 8.11569 4.12745 -0.0120897 0.00882419 -0.0366183
45 2 4.93746 4.60637 3.035 0.022499 0.00671731 -0.00214056
46 1 9.63058 12.5318 7.90385 0.000490058 2.3146e-05 -0.00216412
47 2 8.99046 12.0047 7.37781 -0.0138412 -0.016859 -0.00516036
48 2 10.5136 12.1178 7.81599 -0.00266358 -0.0130031 -0.0158206
49 1 10.3887 6.36053 9.80334 0.00566651 0.0024293 0.00402135
50 2 9.57442 6.40837 9.32699 -0.00283923 0.000559178 0.00700859
51 2 10.258 5.61012 10.38 0.0117033 0.0229546 0.000893719
52 1 9.70318 9.55743 4.88063 -0.00181779 -0.000864668 -0.000509763
53 2 9.1923 8.78272 4.98527 0.0105585 -0.00591826 0.00662867
54 2 9.10128 10.2015 5.35067 0.00884532 -0.0138209 -0.016984
55 1 4.64734 11.5012 2.96949 -0.00264856 -0.00783888 -0.000153531
56 2 5.34455 10.8833 2.85137 0.00557484 -0.00162482 0.0239883
57 2 4.13304 11.2102 2.20526 0.00480027 -0.00801914 -0.00331796
58 1 6.62462 10.5211 9.50724 -0.000601968 0.00521939 0.00110022
59 2 4.77627 12.2064 7.20828 -0.0148276 -0.000971468 -0.0197817
60 2 7.9808 11.368 10.1315 -0.0138731 -0.0358557 -0.00701092
61 1 7.1147 5.26401 5.65123 -0.00222721 -0.00295444 0.0036272
62 2 7.59212 5.57447 6.55112 -0.00164266 -0.0424646 -0.010134
63 2 5.72924 5.90064 6.06046 0.0192112 -0.00666652 -0.00154319
64 1 5.2861 11.3345 7.18761 -0.00597861 -0.000662206 -0.00274649
65 2 4.6283 10.7215 6.81037 -0.0151465 -0.008462 -0.0362148
66 2 12.2867 12.2884 6.10081 0.018352 -0.023692 -0.0273081
67 1 12.1951 11.7922 8.17176 -0.00424925 -0.00510234 -0.00531645
68 2 3.03946 12.4211 8.44387 -0.00906156 0.00881152 -0.00811043
69 2 12.3658 10.9368 8.64851 -0.0053481 -0.000883533 -0.025231
70 1 9.78291 4.13213 4.74352 0.00314985 0.0119861 -0.00156106
71 2 9.79062 4.033 3.73893 0.00162471 0.0184556 0.00630386
72 2 9.36322 13.2117 5.09675 -0.021527 0.0100519 -0.0108845
73 1 11.7212 8.4134 8.15886 0.00048649 -0.000758974 -0.00121007
74 2 11.3814 7.8098 8.82129 -0.0154427 -0.00297616 0.0188298
75 2 12.6569 8.18455 8.00857 -0.0104117 -0.0194761 0.000469176
76 1 3.21728 5.51832 10.0767 -0.000825509 0.00480503 -0.00300211
77 2 12.1745 5.85276 9.80003 -0.00133665 0.0143871 0.0171564
78 2 3.89923 6.74898 11.2586 -0.0406439 0.00185598 0.0014785
79 1 3.06938 10.2661 10.5929 0.00884086 0.00227015 0.00404443
80 2 3.56069 9.40182 10.6277 0.00215265 0.0219353 0.0409066
81 2 6.34399 10.9401 8.7077 -0.00718736 -0.0038969 0.000840881
82 1 6.03844 5.70812 9.55885 0.000327422 -0.00387998 -0.00110471
83 2 5.13509 5.69145 9.22403 0.015281 0.0310847 -0.0115102
84 2 6.02471 5.2456 10.3972 -0.02661 0.00997814 0.00386264
85 1 10.1 13.6414 11.8445 -0.00203727 -0.000336855 -0.0021403
86 2 9.4935 12.9832 11.3594 -0.0100024 0.00580495 -0.0148546
87 2 3.05575 4.8361 10.7402 -0.00767732 -0.0116881 -0.0150302
88 1 8.00317 11.949 5.85661 -0.0078876 -1.12685e-05 0.00387399
89 2 7.21836 11.5835 6.28941 -0.0192527 -0.0175003 -0.000485422
90 2 7.67469 12.7893 5.4976 -0.016147 0.00676398 0.0070631
91 1 4.65055 5.832 6.09858 0.00230116 0.0012071 -0.00105695
92 2 4.1247 7.51364 6.60375 -0.0182773 0.0057656 -0.0201604
93 2 4.34591 4.75262 7.24557 0.012722 0.0178129 -0.00485652
94 1 4.10496 4.08739 7.977 -0.00362337 -0.00644716 -0.00170054
95 2 3.52212 4.4646 8.63479 0.00173704 0.0194489 0.00997069
96 2 4.36375 5.3312 5.28897 0.0171847 -0.0216531 -0.0306247
ITEM: TIMESTEP
4
ITEM: NUMBER OF ATOMS
96
ITEM: BOX BOUNDS pp pp pp
2.9236100000000000e+00 1.2773600000000000e+01
4.0306300000000004e+00 1.3880599999999999e+01
2.1372399999999998e+00 1.1987200000000000e+01
ITEM: ATOMS id type x y z vx vy vz
1 1 5.6649 4.14673 2.51155 0.00256225 0.00191317 0.0049139
2 2 5.37394 13.1066 2.64687 0.0204124 -0.0166546 -0.0196108
3 2 11.0565 13.3387 11.6897 0.000809634 -0.0218452 -0.0168283
4 1 12.6443 12.9117 11.4031 -0.00316105 -0.00341145 -0.00260959
5 2 12.6492 11.9939 11.0361 0.0110834 0.0106554 0.0221282
6 2 3.41317 12.992 2.27128 -0.00698059 -0.0386566 0.000728516
7 1 11.6398 7.24993 3.84958 0.000840874 -0.00120449 -0.00149978
8 2 10.8183 7.17135 4.3455 0.00242276 0.00326818 0.000432043
9 2 9.72042 8.91807 7.67121 -0.00418912 -0.0100179 -0.0182061
10 1 8.80869 8.75804 7.97293 0.00169972 0.00205987 -0.00239839
11 2 8.69227 7.83058 7.92861 -0.0169608 -0.00412952 0.00696956
12 2 7.19924 9.83129 9.16456 0.00213475 -0.00894294 -0.00151352
13 1 6.58021 9.01078 2.24593 -0.00988937 0.00228805 -0.000609878
14 2 6.79431 9.48967 11.2478 0.0201076 0.0322563 -0.000592033
15 2 5.80933 8.46223 11.805 0.0223732 -0.023044 -0.0163084
16 1 8.59993 7.21406 2.14946 -0.00396394 -0.00308283 0.00926336
17 2 8.89101 6.59177 3.70691 0.00591462 -0.0198822 -0.00954309
18 2 7.73498 7.91591 2.26275 -0.00368222 0.00919528 -0.0114207
19 1 4.1057 7.58117 11.7803 0.00622138 0.000651236 -0.0046075
20 2 3.27664 7.59923 2.45907 0.00470431 -0.00124272 -0.000102675
21 2 12.1547 10.0928 11.2357 0.0242274 -0.00654135 0.0164815
22 1 10.3967 9.55788 2.14005 0.00195347 0.00274014 0.00601088
23 2 10.0183 9.74343 3.02673 0.0075644 -0.0174471 -0.00505492
24 2 9.37631 7.86378 11.8972 -0.0138589 0.00713635 -0.0309567
25 1 4.19701 8.51739 6.76732 0.00362983 0.00421758 0.00734304
26 2 3.73934 8.8799 5.95264 0.0295596 -0.00335331 0.0123139
27 2 12.481 5.70585 4.18443 0.0169927 -0.0149877 -0.0124074
28 1 8.96318 6.69476 4.71451 0.00547777 0.00540486 0.00424647
29 2 9.39007 5.91412 5.10138 0.0202299 -0.0247365 0.00138812
30 2 7.4893 5.93726 4.9742 -0.0119694 -0.00715992 0.000841159
31 1 3.18161 9.67464 4.47985 -0.00429401 0.00305114 0.00271319
32 2 12.4424 10.2813 4.90495 -0.0107829 0.00929761 0.037331
33 2 3.90647 10.2953 4.27015 -0.0021557 -0.00833698 0.0240034
34 1 8.23162 5.38774 8.07128 0.00300372 -0.00258763 -0.00478628
35 2 8.57811 4.47321 7.81186 -0.00151441 -0.000248339 0.00916696
36 2 7.51743 5.29896 8.6722 0.00928826 -0.0144331 0.0126991
37 1 8.92947 11.6729 10.4195 -0.00310771 -0.00273831 8.05138e-05
38 2 9.26472 11.9869 9.51946 0.00132859 -2.37883e-05 0.00997164
39 2 9.9083 10.2294 11.493 0.000189566 0.00263205 0.0185351
40 1 12.1262 12.1531 5.17045 0.00609685 0.00189168 -0.000835375
41 2 12.6329 4.14892 4.61223 0.0219061 0.00291006 0.0185557
42 2 11.2167 12.333 5.06583 -0.00950087 -0.00702629 0.013632
43 1 3.20556 4.95588 4.15539 0.00229566 0.00228809 -0.00505535
44 2 11.9225 8.12099 4.10904 -0.00914009 0.0125215 -0.0370034
45 2 4.95014 4.61024 3.03304 0.0276611 0.00858908 -0.00537105
46 1 9.63077 12.5318 7.90282 0.000228 0.000114109 -0.00198631
47 2 8.98366 11.9963 7.37471 -0.0129335 -0.0160644 -0.0068541
48 2 10.5127 12.1111 7.80804 -0.00128697 -0.0135919 -0.0159202
49 1 10.3916 6.36175 9.80535 0.00595687 0.0025076 0.00398394
50 2 9.57231 6.4084 9.33018 -0.0053892 -0.00045633 0.00583832
51 2 10.2635 5.62143 10.3808 0.0100842 0.0216713 0.00284943
52 1 9.7022 9.55713 4.88044 -0.00204991 -0.000390694 -0.000272719
53 2 9.19743 8.77843 4.98841 0.00991665 -0.0112845 0.00595908
54 2 9.10685 10.1941 5.34131 0.0128256 -0.0150267 -0.0199556
55 1 4.646 11.4973 2.96941 -0.00268848 -0.00794545 -0.000162894
56 2 5.34902 10.8818 2.86387 0.0119413 -0.00447113 0.0258619
57 2 4.13452 11.2066 2.20333 0.00140254 -0.00659306 -0.00428093
58 1 6.62437 10.5237 9.50788 -0.000348046 0.00509876 0.00145964
59 2 4.76983 12.2044 7.1987 -0.0108348 -0.00725485 -0.0184559
60 2 7.97455 11.3502 10.1294 -0.0106107 -0.0351706 -0.00162644
61 1 7.11364 5.26262 5.65314 -0.00203968 -0.00263017 0.00392969
62 2 7.59054 5.55216 6.54508 -0.00425915 -0.0461834 -0.0134404
63 2 5.73788 5.89663 6.05924 0.0147746 -0.00923661 -0.00315939
64 1 5.28303 11.3342 7.18618 -0.00635663 -0.000302478 -0.00303049
65 2 4.62144 10.7174 6.79283 -0.0116964 -0.00734748 -0.0335593
66 2 12.2956 12.2765 6.08774 0.0175464 -0.0238146 -0.0238726
67 1 12.193 11.7896 8.1691 -0.00417234 -0.00531783 -0.00534699
68 2 3.03482 12.4251 8.43981 -0.00949762 0.00689615 -0.00811824
69 2 12.3632 10.9375 8.63583 -0.0047921 0.00341458 -0.0251758
70 1 9.78454 4.13816 4.74267 0.00335415 0.0121001 -0.00179901
71 2 9.79146 4.04217 3.74266 0.00176475 0.0182298 0.00828128
72 2 9.35201 13.2163 5.09151 -0.0231361 0.00852501 -0.0101762
73 1 11.7214 8.41303 8.15824 0.000412703 -0.000744926 -0.00122959
74 2 11.3738 7.80808 8.83085 -0.0147139 -0.00333788 0.0187913
75 2 12.6516 8.17511 8.0086 -0.0106251 -0.0182954 -0.000319166
76 1 3.21685 5.52077 10.0751 -0.000889267 0.0049482 -0.00318725
77 2 12.1741 5.85978 9.80901 -0.000191662 0.0137756 0.0186215
78 2 3.88002 6.75089 11.2593 -0.0358012 0.00584304 0.00115472
79 1 3.07374 10.2671 10.595 0.00860025 0.00192848 0.00434266