ITEM: TIMESTEP
0
ITEM: NUMBER OF ATOMS
96
ITEM: BOX BOUNDS pp pp pp
2.9236100000000000e+00 1.2773600000000000e+01
4.0306300000000004e+00 1.3880599999999999e+01
2.1372399999999998e+00 1.1987200000000000e+01
ITEM: ATOMS id type x y z vx vy vz
1 1 7.31621 13.3694 3.55364 0.00350996 0.00338422 0.00276327
2 2 6.64354 12.6501 3.36535 0.0146927 -0.0118479 -0.00714603
3 2 9.64198 13.2846 11.2255 -0.0184676 0.0139949 -0.00806014
4 1 12.4677 9.84896 2.5581 -0.00245414 0.00210764 -0.00295687
5 2 11.492 10.0656 2.70187 0.0274108 -0.0149756 -0.00501898
6 2 12.6254 8.90361 2.88564 0.00283924 0.0185876 -0.0495244
7 1 12.0835 7.67083 3.96321 -0.00128974 -0.0010871 -0.00227974
8 2 11.1314 7.30178 3.96404 -0.00074744 -0.0136492 -0.0134614
9 2 7.48863 8.78455 6.92703 0.00155744 -0.00725662 0.0173501
10 1 6.89445 8.51631 7.61401 -0.000358197 -0.00652819 0.000359755
11 2 6.66654 7.62635 7.32888 0.015277 -0.00560381 -0.0245406
12 2 6.41262 9.46967 9.06846 0.00720603 -0.0196243 -0.0057935
13 1 6.88382 8.67273 2.49071 0.00556172 0.00564672 -0.00277332
14 2 6.35772 9.03508 11.6161 -0.0419632 -0.0118468 0.0227875
15 2 6.96952 7.75857 2.2363 0.0246918 -0.00481245 0.0101102
16 1 9.64373 7.39939 11.149 0.0071814 0.00336164 -0.000975618
17 2 9.91765 7.35544 2.23518 0.00254182 -0.0127272 -0.0178864
18 2 8.69687 7.23614 11.2781 0.0163354 -0.00157193 0.0197275
19 1 4.73741 6.05352 10.9378 0.00225398 -0.0027375 0.00949837
20 2 4.33098 5.99603 11.8946 -0.0107231 -0.0071916 0.0301268
21 2 11.2429 8.0219 10.1698 0.000147494 -0.00356536 0.0140387
22 1 9.98858 10.1528 11.836 -0.000612383 -0.000838594 0.00166562
23 2 9.52143 10.3199 2.82875 -0.00793328 -0.0188108 0.00369832
24 2 9.9483 9.17969 11.6198 -0.0252787 -0.00684139 0.012138
25 1 3.39637 8.38036 6.30938 -0.000232341 0.00512348 -0.00392286
26 2 3.83489 9.2788 6.20574 0.0139714 -0.00153376 0.00805214
27 2 3.21582 6.24224 3.86731 0.00755763 0.00465605 -0.0125615
28 1 9.43132 7.22023 4.21055 0.00275101 -0.00408298 0.00937879
29 2 9.18467 6.37823 4.61029 0.00556131 -0.0290018 -0.00917983
30 2 9.29913 7.91582 4.886 -0.0227976 0.0142658 -0.00696747
31 1 4.17921 10.9395 5.75757 0.00464145 -0.000242368 0.00222442
32 2 3.60534 11.7435 5.57518 0.00150918 -0.0313838 0.00203957
33 2 4.63395 10.827 4.85414 0.00580038 -0.00631865 -0.0103777
34 1 8.05613 4.90482 9.02372 0.00169825 0.00184306 -0.000989697
35 2 7.79764 13.8625 9.1092 0.00388501 -0.00225665 0.0280069
36 2 7.70695 5.28038 9.84318 -0.00526181 -0.0186159 -0.007465
37 1 8.25434 11.7533 10.3649 -0.00788489 -0.00850414 0.00219075
38 2 9.45356 11.9256 9.09579 -0.00959297 -0.00939974 -0.0021759
39 2 8.75334 11.2501 10.9638 -0.01058 -0.00908488 -0.029619
40 1 3.01637 13.4871 5.22223 -0.00429315 0.00706908 0.00116062
41 2 3.6732 4.72722 4.27953 0.00783378 -0.0247915 -0.0310031
42 2 11.8997 13.6337 4.9647 -0.00650757 0.0222939 -0.0205731
43 1 3.93385 5.53974 3.65667 0.00426363 -0.000100044 -0.00757255
44 2 12.345 7.88863 4.89697 0.0110313 -0.0110788 0.00200367
45 2 8.13918 12.8786 3.82017 -0.0156129 0.00128877 0.000576441
46 1 9.92759 12.2556 8.2606 -0.00330578 -0.00166945 -0.00136015
47 2 8.45822 12.4891 7.31481 0.000472248 0.0259203 -0.0276429
48 2 10.6161 11.695 8.0349 -0.00558537 0.0194015 -0.0110106
49 1 10.1594 6.524 8.02746 0.00273111 0.00164629 -0.00902422
50 2 9.4087 5.92866 7.81712 0.0059564 -0.0194192 -0.0342652
51 2 9.90152 6.69545 8.94557 -0.000720046 -0.00708867 0.0276893
52 1 8.96613 11.173 4.63966 -0.000304055 -0.00325085 0.00545534
53 2 9.29764 10.3969 5.08688 -0.00960226 0.0115901 0.00359672
54 2 8.4481 11.5355 5.30623 0.00367455 0.0257256 -0.00425294
55 1 5.22467 11.1533 3.3485 -0.00601502 -0.00115403 -0.000612602
56 2 5.88346 10.4932 3.31905 -0.0226992 -0.00801648 -0.00774064
57 2 4.41115 10.7148 3.0059 0.0123878 0.00408568 0.0283692
58 1 6.09435 10.1074 9.76563 0.00031189 0.0018716 -0.00868555
59 2 4.45704 13.8228 7.62641 -0.00150681 0.000446278 0.0418122
60 2 7.43437 11.1979 10.1706 -0.0409581 -0.00967217 0.0104111
61 1 7.74887 5.69599 6.11742 0.00176181 0.00178439 -3.61463e-05
62 2 7.7696 5.70848 7.0831 0.0103131 0.00293388 -0.00771294
63 2 6.91676 6.12302 5.90869 -0.0134014 0.0185873 0.00410432
64 1 5.35243 12.3984 7.83844 0.00663858 -0.00304175 -0.000827527
65 2 5.11512 11.6948 7.2215 -0.0103255 0.0203829 0.00513038
66 2 3.20846 4.3252 6.01574 0.0014863 -0.0277865 -0.0145845
67 1 11.5504 10.0025 7.91111 0.00269197 -0.00478331 0.00109315
68 2 12.2834 9.63156 7.38762 -0.00703742 -0.00195944 0.0148453
69 2 11.6478 9.61851 8.85056 0.00159639 0.0246379 0.0179782
70 1 10.2724 4.10887 4.5744 0.00483187 -0.00213789 0.00579939
71 2 9.98667 4.19853 3.65062 -0.00989593 0.0110515 0.00438877
72 2 9.49888 13.6696 4.94415 -0.00491782 -0.0218461 -0.00905239
73 1 9.55091 8.91164 6.4733 -0.00263521 0.00125055 0.00400675
74 2 9.71173 8.06821 6.85902 -0.027108 0.00440826 -0.0167415
75 2 9.99281 9.55841 7.0322 0.00207166 0.0144586 0.0194609
76 1 12.1181 4.95315 9.83915 -0.000809461 0.00573537 -0.00416087
77 2 11.5846 5.45406 9.19629 0.00566287 -0.0227602 -0.00207756
78 2 4.02185 5.78812 10.4363 0.00560532 0.0145711 0.00824678
79 1 12.064 8.60581 10.0247 -0.00704117 0.000788744 5.35134e-05
80 2 12.1042 9.28544 10.8242 0.0149122 -0.00256773 -0.0153989
81 2 5.91625 10.9195 9.19064 -0.0244825 0.00557115 0.0117075
82 1 7.30751 5.60775 11.7577 -0.00111009 0.00830259 0.00692968
83 2 7.36958 5.0818 2.77976 -0.0169122 0.0189627 0.0167743
84 2 6.46806 5.43495 11.3255 -0.0100462 -0.00666546 0.0121708
85 1 10.1293 4.12421 11.5443 -0.00368903 -0.00327511 -0.00101915
86 2 9.67641 4.90423 11.2557 0.0136568 0.0212427 0.00894265
87 2 11.4262 4.50071 10.3299 -0.0209497 0.00592234 -0.0126858
88 1 7.75463 12.7772 6.70447 4.78796e-05 -0.00794971 0.00135959
89 2 6.19623 12.7458 7.42598 0.0132768 0.00674344 0.0308855
90 2 8.0482 13.6567 6.47136 -0.012143 -0.00530988 0.00369018
91 1 5.22639 6.54972 5.74615 0.00180181 0.00641082 -0.00128518
92 2 4.16436 7.69514 6.39991 -0.000181853 -0.0141824 0.000437983
93 2 4.80352 5.79962 6.36501 -0.0167082 -0.0254456 0.00389033
94 1 3.75509 4.71059 7.49912 -0.000487943 0.00296132 -0.00601342
95 2 3.01212 4.37174 8.01904 0.0100899 -0.0085049 0.0113412
96 2 4.82443 6.28859 4.87768 -0.00155977 0.00782171 -0.0231769
ITEM: TIMESTEP
1
ITEM: NUMBER OF ATOMS
96
ITEM: BOX BOUNDS pp pp pp
2.9236100000000000e+00 1.2773600000000000e+01
4.0306300000000004e+00 1.3880599999999999e+01
2.1372399999999998e+00 1.1987200000000000e+01
ITEM: ATOMS id type x y z vx vy vz
1 1 7.31797 13.371 3.55503 0.00349933 0.00297446 0.00279494
2 2 6.65202 12.6453 3.36217 0.0190731 -0.0071115 -0.00558961
3 2 9.63098 13.2897 11.2203 -0.0254841 0.00671541 -0.0126349
4 1 12.4665 9.84998 2.55658 -0.00218807 0.00201331 -0.00315017
5 2 11.5061 10.058 2.69937 0.0274902 -0.014992 -0.00476663
6 2 12.6262 8.91382 2.86088 0.000708219 0.0210533 -0.049025
7 1 12.0828 7.6702 3.96204 -0.00131385 -0.00141517 -0.00241381
8 2 11.1312 7.2954 3.95781 0.000359298 -0.0117277 -0.0112598
9 2 7.49006 8.7812 6.93549 0.00448709 -0.0058172 0.0162003
10 1 6.89425 8.51301 7.61419 -0.000474027 -0.00669372 0.000381098
11 2 6.67398 7.62371 7.31658 0.0143814 -0.00495121 -0.024497
12 2 6.41596 9.45993 9.06642 0.00595549 -0.0186976 -0.00230402
13 1 6.88657 8.67557 2.4893 0.00542374 0.00569951 -0.00285324
14 2 6.33708 9.02917 11.6276 -0.0404967 -0.0119445 0.0231893
15 2 6.98184 7.75588 2.24151 0.0244784 -0.00552781 0.0107079
16 1 9.64731 7.40108 11.1485 0.00714578 0.00337996 -0.00087904
17 2 9.91908 7.34893 2.22577 0.00361494 -0.0132976 -0.0190103
18 2 8.70524 7.23523 11.2876 0.0167417 -0.00208226 0.0182253
19 1 4.73857 6.05218 10.9427 0.00236585 -0.00264517 0.0103222
20 2 4.32702 5.99259 11.9082 -0.00492946 -0.00657947 0.0236039
21 2 11.2443 8.02142 10.177 0.00528084 0.00155972 0.0146424
22 1 9.98828 10.1524 11.8368 -0.000609885 -0.000883907 0.00165439
23 2 9.51736 10.31 2.83058 -0.00821711 -0.0205256 0.0034703
24 2 9.93504 9.17675 11.6263 -0.0275417 -0.00468098 0.0136299
25 1 3.39631 8.38291 6.30744 1.37532e-05 0.00505121 -0.00385235
26 2 3.84165 9.27751 6.2095 0.0130165 -0.00359223 0.00699357
27 2 3.22013 6.24416 3.86035 0.00938091 0.00301138 -0.0150775
28 1 9.43273 7.2182 4.21519 0.00288839 -0.00403431 0.00919795
29 2 9.18724 6.36384 4.60633 0.004793 -0.0278095 -0.00664075
30 2 9.28768 7.92245 4.88265 -0.0229775 0.0117787 -0.00644838
31 1 4.18149 10.9394 5.75866 0.00453025 -6.83152e-05 0.00211697
32 2 3.60637 11.7272 5.57694 0.00216031 -0.0331371 0.00483008
33 2 4.63722 10.8236 4.84947 0.00714296 -0.00713131 -0.00794901
34 1 8.05696 4.90582 9.02322 0.00161633 0.00211399 -0.00101046
35 2 7.79963 13.8601 9.12309 0.00431111 -0.00708694 0.0272536
36 2 7.70457 5.27124 9.83941 -0.00436981 -0.0173957 -0.00725175
37 1 8.2503 11.7491 10.3659 -0.00834359 -0.00823892 0.00172486
38 2 9.44921 11.9209 9.09416 -0.00766569 -0.00925519 -0.00449004
39 2 8.74935 11.2445 10.9503 -0.00495635 -0.0139318 -0.0237706
40 1 3.01422 13.4907 5.22288 -0.00432765 0.00723461 0.00136311
41 2 3.67738 4.71494 4.26298 0.00870192 -0.024187 -0.035
42 2 11.897 13.6447 4.95463 -0.00407189 0.0215168 -0.019585
43 1 3.9359 5.53974 3.65294 0.00397862 9.01679e-05 -0.00734361
44 2 12.3505 7.8834 4.89849 0.010774 -0.00995345 0.00376931
45 2 8.13003 12.8795 3.82004 -0.0203177 0.00227552 -0.000889897
46 1 9.92581 12.2549 8.25998 -0.00383095 -0.00123005 -0.00109422
47 2 8.45903 12.5013 7.30185 0.00341947 0.0221275 -0.0234232
48 2 10.6149 11.7028 8.02924 0.000951234 0.0115476 -0.011619
49 1 10.1607 6.52478 8.023 0.00233881 0.00147175 -0.0087695
50 2 9.41259 5.91931 7.79972 0.0100321 -0.0174765 -0.0348811
51 2 9.90172 6.69227 8.95915 0.00172194 -0.00600193 0.0252117
52 1 8.96604 11.1713 4.64228 -7.62145e-05 -0.00343965 0.00501645
53 2 9.29341 10.4019 5.08858 -0.00720462 0.00781617 0.00360663
54 2 8.44835 11.5499 5.3055 -0.00240542 0.031712 0.00112808
55 1 5.2216 11.1528 3.34818 -0.00622733 -0.000891278 -0.000652121
56 2 5.87294 10.4878 3.31475 -0.0190577 -0.0135292 -0.00941525
57 2 4.41777 10.717 3.01981 0.0130645 0.00432466 0.0268283
58 1 6.09453 10.1084 9.76117 0.000416704 0.00217683 -0.00913825
59 2 4.45627 13.823 7.64718 -0.00153447 0.000772074 0.0409044
60 2 7.41422 11.1932 10.1758 -0.0389976 -0.00884223 0.0106887
61 1 7.74984 5.69686 6.11745 0.00207903 0.00173288 0.000131716
62 2 7.77505 5.70956 7.07958 0.0114625 0.00141929 -0.00617487
63 2 6.90912 6.13263 5.90989 -0.0164999 0.0194908 0.000904748
64 1 5.35579 12.3969 7.83805 0.00679175 -0.00296478 -0.000687977
65 2 5.10882 11.7044 7.22359 -0.0146752 0.0177609 0.00272075
66 2 3.20883 4.30995 6.00799 4.29112e-06 -0.0324373 -0.0158846
67 1 11.5517 10.0002 7.91162 0.00261914 -0.00452719 0.000968016
68 2 12.2796 9.6304 7.39512 -0.00751104 -0.00299761 0.0148469
69 2 11.6487 9.6306 8.85957 0.00192208 0.0237299 0.0178598
70 1 10.2749 4.10788 4.57724 0.00500106 -0.00182021 0.00554693
71 2 9.98249 4.20413 3.65214 -0.00663331 0.0113184 0.00202059
72 2 9.49433 13.6576 4.94146 -0.0125819 -0.0261492 -0.00199832
73 1 9.54951 8.91231 6.47521 -0.00296453 0.00150861 0.00362337
74 2 9.69872 8.06906 6.85166 -0.0247405 -0.00127555 -0.0123992
75 2 9.99474 9.56603 7.04262 0.00533397 0.0152167 0.0217857
76 1 12.1177 4.95605 9.837 -0.000900207 0.00582023 -0.00440619
77 2 11.588 5.44304 9.19501 0.00770356 -0.0207905 -0.00365327
78 2 4.02298 5.79463 10.4383 -0.00107395 0.0115025 -5.78999e-05
79 1 12.0604 8.6062 10.0249 -0.00725612 0.000767687 0.000522939
80 2 12.1116 9.28275 10.8157 0.0144636 -0.00791438 -0.0183167
81 2 5.90365 10.9213 9.19765 -0.0257837 0.00142272 0.0158436
82 1 7.30703 5.61193 11.7612 -0.000833048 0.00839206 0.00714972
83 2 7.36048 5.09153 2.78657 -0.0193238 0.0200038 0.0104305
84 2 6.46221 5.43155 11.3321 -0.01301 -0.00674617 0.0142732
85 1 10.1276 4.12266 11.5439 -0.00319441 -0.00291056 -0.000687415
86 2 9.68241 4.91536 11.26 0.0105389 0.0228449 0.00822726
87 2 11.4157 4.5029 10.3245 -0.0205359 0.00293357 -0.00880593
88 1 7.75465 12.7732 6.70512 6.50243e-07 -0.00804808 0.00120845
89 2 6.20329 12.7496 7.4418 0.0149335 0.00815596 0.0320951
90 2 8.04154 13.6555 6.47253 -0.0146778 0.000585341 0.000773925
91 1 5.22718 6.5528 5.74567 0.00132876 0.00586496 -0.000637749
92 2 4.16352 7.68886 6.39964 -0.0033505 -0.0107611 -0.00158877
93 2 4.79649 5.78894 6.366 -0.0111052 -0.0166738 -0.0005103
94 1 3.75488 4.71204 7.49608 -0.000349976 0.00279786 -0.00608424
95 2 3.01671 4.36798 8.02539 0.00817722 -0.00615389 0.0138105
96 2 4.82395 6.29284 4.86502 -5.18434e-05 0.00929278 -0.0265527
ITEM: TIMESTEP
2
ITEM: NUMBER OF ATOMS
96
ITEM: BOX BOUNDS pp pp pp
2.9236100000000000e+00 1.2773600000000000e+01
4.0306300000000004e+00 1.3880599999999999e+01
2.1372399999999998e+00 1.1987200000000000e+01
ITEM: ATOMS id type x y z vx vy vz
1 1 7.31971 13.3724 3.55643 0.00342206 0.00258065 0.00280469
2 2 6.66261 12.643 3.35976 0.0229748 -0.00221376 -0.00412168
3 2 9.6165 13.2913 11.2129 -0.032044 0.000386101 -0.0168771
4 1 12.4655 9.85097 2.55495 -0.00178941 0.00202439 -0.00338908
5 2 11.5195 10.0506 2.6971 0.0249786 -0.014237 -0.00413447
6 2 12.6261 8.92466 2.83662 -0.000769132 0.0210304 -0.0476009
7 1 12.0822 7.66941 3.9608 -0.00133212 -0.00174563 -0.00253045
8 2 11.1318 7.29005 3.95278 0.00187325 -0.0095733 -0.0086732
9 2 7.49312 8.77873 6.94323 0.00798401 -0.00377671 0.0145837
10 1 6.89398 8.50962 7.61439 -0.000618156 -0.00689193 0.00042045
11 2 6.68092 7.6214 7.30438 0.0132708 -0.00431956 -0.024141
12 2 6.41858 9.45097 9.06616 0.00439959 -0.016588 0.00116686
13 1 6.88924 8.67843 2.48786 0.00529135 0.00571231 -0.00292829
14 2 6.31722 9.02314 11.6393 -0.0387943 -0.0123607 0.0235292
15 2 6.994 7.75304 2.24701 0.0239951 -0.00538263 0.0112417
16 1 9.65088 7.40277 11.1481 0.00710319 0.00339175 -0.000860482
17 2 9.92126 7.34214 2.21617 0.00559113 -0.0138546 -0.0186059
18 2 8.71361 7.23406 11.2963 0.0163035 -0.0026324 0.0163939
19 1 4.73978 6.05087 10.9481 0.00243932 -0.00256657 0.0111708
20 2 4.32605 5.98945 11.9182 0.00111004 -0.00599987 0.0160056
21 2 11.2482 8.02346 10.1844 0.00976484 0.00635274 0.0152627
22 1 9.98797 10.1519 11.8377 -0.000661428 -0.000975423 0.00167179
23 2 9.51321 10.2994 2.83222 -0.0082398 -0.0216753 0.00301248
24 2 9.92076 9.17501 11.6334 -0.0293804 -0.00216194 0.0147064
25 1 3.39638 8.38541 6.30553 0.000280587 0.00493923 -0.00377925
26 2 3.84791 9.27521 6.21273 0.0120273 -0.00551063 0.00590219
27 2 3.2252 6.24525 3.85223 0.0105655 0.00140935 -0.0171475
28 1 9.43421 7.2162 4.21975 0.00301708 -0.0040199 0.00902715
29 2 9.18946 6.35042 4.60365 0.00418479 -0.025214 -0.00412346
30 2 9.27615 7.9276 4.87955 -0.0230693 0.00846166 -0.00594293
31 1 4.18374 10.9394 5.75969 0.00449664 5.58619e-06 0.00200259
32 2 3.6075 11.7104 5.58001 0.00186094 -0.0334919 0.00722903
33 2 4.64109 10.8199 4.84619 0.00821067 -0.00773397 -0.00488393
34 1 8.05775 4.90693 9.02271 0.0015241 0.00228779 -0.00105021
35 2 7.80195 13.8554 9.13645 0.00521371 -0.0113628 0.0259298
36 2 7.70258 5.26298 9.83593 -0.00367082 -0.0151685 -0.0063733
37 1 8.246 11.7451 10.3666 -0.00891002 -0.007984 0.00120864
38 2 9.44589 11.9163 9.0913 -0.00554191 -0.00911736 -0.0070323
39 2 8.74838 11.2362 10.94 0.00121842 -0.0193924 -0.0173515
40 1 3.01204 13.4943 5.22359 -0.00437586 0.00729787 0.00141929
41 2 3.6819 4.70303 4.24453 0.00915613 -0.0232975 -0.0385522
42 2 11.8956 13.6552 4.94511 -0.00148124 0.0207395 -0.0183637
43 1 3.93783 5.53983 3.64933 0.0037471 0.000267125 -0.00712995
44 2 12.3558 7.87868 4.90074 0.0100711 -0.00903631 0.00488091
45 2 8.11886 12.8809 3.81928 -0.0235083 0.00286658 -0.00192335
46 1 9.92376 12.2544 8.25951 -0.00435201 -0.000791105 -0.000810682
47 2 8.46164 12.5112 7.29139 0.00754168 0.0173644 -0.0179047
48 2 10.6171 11.7065 8.02328 0.00741882 0.00364391 -0.0120757
49 1 10.1617 6.52547 8.01869 0.00187452 0.00128263 -0.00840801
50 2 9.41873 5.91118 7.78224 0.0147542 -0.0146647 -0.0346361
51 2 9.90324 6.68945 8.97078 0.00444514 -0.005563 0.0201887
52 1 8.96605 11.1696 4.64468 9.13752e-05 -0.00354524 0.00458373
53 2 9.29044 10.4047 5.09049 -0.00474745 0.00345651 0.00438803
54 2 8.44569 11.5672 5.30736 -0.00761051 0.0368844 0.00577675
55 1 5.21844 11.1524 3.34785 -0.00633341 -0.000585502 -0.000651768
56 2 5.8644 10.4797 3.30963 -0.0149596 -0.0189845 -0.010968
57 2 4.42421 10.7191 3.03273 0.0117061 0.0038834 0.0244049
58 1 6.09477 10.1096 9.75649 0.000534273 0.00241967 -0.00952739
59 2 4.45551 13.8236 7.66731 -0.00148217 0.00185258 0.0392894
60 2 7.39537 11.1891 10.1813 -0.0357872 -0.00742009 0.0111746
61 1 7.75095 5.69772 6.11755 0.00229639 0.00173378 0.000246812
62 2 7.78106 5.7099 7.07693 0.0125384 -4.16179e-05 -0.00431237
63 2 6.90026 6.14251 5.90959 -0.0182086 0.0195757 -0.00179396
64 1 5.35922 12.3954 7.83775 0.00691483 -0.00282759 -0.000446231
65 2 5.10044 11.7126 7.22422 -0.0185481 0.0147534 -0.000603579
66 2 3.20846 4.29276 5.99986 -0.00136363 -0.035449 -0.0159914
67 1 11.553 9.99797 7.91208 0.00246959 -0.0042339 0.0008955
68 2 12.2759 9.62856 7.40247 -0.00700205 -0.00462605 0.0142458
69 2 11.6497 9.64224 8.86842 0.00221343 0.0228481 0.0172976
70 1 10.2774 4.10705 4.57995 0.00502088 -0.00152778 0.00528922
71 2 9.98004 4.20985 3.65264 -0.00301067 0.011479 0.000491203
72 2 9.4863 13.6435 4.94215 -0.0184028 -0.0298986 0.00416808
73 1 9.54795 8.91315 6.47692 -0.00325438 0.00188164 0.00326853
74 2 9.68699 8.06693 6.84662 -0.0220885 -0.0071461 -0.00760661
75 2 9.99814 9.57363 7.05399 0.00791856 0.0142767 0.0231807
76 1 12.1172 4.95897 9.83474 -0.00100562 0.00582606 -0.0045575
77 2 11.5923 5.43327 9.19264 0.00919716 -0.0178481 -0.00640146
78 2 4.02078 5.79962 10.4362 -0.00739417 0.00863058 -0.00784981
79 1 12.0567 8.60658 10.0252 -0.0074157 0.000714845 0.000919813
80 2 12.1187 9.27753 10.8059 0.0137667 -0.0125162 -0.020492
81 2 5.89047 10.9209 9.20648 -0.0268837 -0.00277289 0.0189209
82 1 7.30668 5.61614 11.7648 -0.000627851 0.00846008 0.0073646
83 2 7.35026 5.1018 2.79019 -0.0213266 0.021084 0.00426734
84 2 6.45505 5.4282 11.3398 -0.0152545 -0.00641809 0.0163775
85 1 10.1261 4.1213 11.5436 -0.00275854 -0.00254034 -0.000394323
86 2 9.68695 4.92707 11.2639 0.00790792 0.0234354 0.00783292
87 2 11.4057 4.50364 10.3211 -0.0192903 0.000228395 -0.00515834
88 1 7.75463 12.7692 6.70568 -0.000107596 -0.00809027 0.000980368
89 2 6.21116 12.754 7.45808 0.0164789 0.00902721 0.0327309
90 2 8.03352 13.6573 6.47213 -0.0175699 0.00661444 -0.00242215
91 1 5.22772 6.55558 5.74551 0.000792519 0.00524182 -4.42367e-05
92 2 4.16101 7.68438 6.39832 -0.00675034 -0.00707581 -0.00371626
93 2 4.79241 5.78295 6.3645 -0.00506683 -0.00699792 -0.00582105
94 1 3.75474 4.71339 7.49304 -0.000190607 0.00255221 -0.00604521
95 2 3.0203 4.36559 8.03285 0.00619916 -0.00306813 0.0157075
96 2 4.82438 6.29788 4.85113 0.00204478 0.010913 -0.0281272
ITEM: TIMESTEP
3
ITEM: NUMBER OF ATOMS
96
ITEM: BOX BOUNDS pp pp pp
2.9236100000000000e+00 1.2773600000000000e+01
4.0306300000000004e+00 1.3880599999999999e+01
2.1372399999999998e+00 1.1987200000000000e+01
ITEM: ATOMS id type x y z vx vy vz
1 1 7.32139 13.3736 3.55784 0.00328003 0.0022319 0.00279355
2 2 6.67499 12.6431 3.35805 0.0260326 0.00247681 -0.00285467
3 2 9.59893 13.2901 11.2034 -0.0375347 -0.00427421 -0.0203952
4 1 12.4647 9.852 2.55319 -0.00127192 0.00214738 -0.00366258
5 2 11.531 10.0438 2.69524 0.0200967 -0.0127627 -0.00315493
6 2 12.6254 8.93485 2.81328 -0.00154805 0.0185276 -0.0453804
7 1 12.0815 7.66846 3.9595 -0.00133747 -0.0020736 -0.00261933
8 2 11.1331 7.28583 3.94913 0.00365548 -0.00725795 -0.00577517
9 2 7.49804 8.77742 6.95008 0.0118129 -0.00128865 0.0127796
10 1 6.89363 8.50612 7.61461 -0.000775831 -0.00711534 0.000460851
11 2 6.68725 7.6194 7.29244 0.0119748 -0.00368613 -0.0235027
12 2 6.42036 9.44334 9.06759 0.00265724 -0.0135684 0.00436356
13 1 6.89186 8.68128 2.48637 0.00516571 0.00568693 -0.00299733
14 2 6.29828 9.01681 11.6511 -0.0368574 -0.0130942 0.0238099
15 2 7.00584 7.7505 2.25275 0.0232226 -0.0044061 0.0117048
16 1 9.65442 7.40447 11.1477 0.00705465 0.00339829 -0.0009215
17 2 9.92467 7.33508 2.20717 0.00852601 -0.0144172 -0.016633
18 2 8.72154 7.2326 11.304 0.0149381 -0.00323297 0.0142285
19 1 4.74101 6.04961 10.9539 0.00245202 -0.00251284 0.0119664
20 2 4.32813 5.98659 11.9242 0.00705969 -0.00547674 0.00779077
21 2 11.2541 8.02777 10.1922 0.0131748 0.0104463 0.0159345
22 1 9.98762 10.1514 11.8385 -0.000769037 -0.0011027 0.00171865
23 2 9.50912 10.2883 2.83359 -0.0080376 -0.0221627 0.00243781
24 2 9.90566 9.17459 11.641 -0.0307632 0.000485582 0.0152527
25 1 3.39659 8.38785 6.30366 0.000545524 0.00479388 -0.00370516
26 2 3.85367 9.272 6.21541 0.0110841 -0.00711264 0.00476114
27 2 3.23069 6.24557 3.8432 0.0110106 -5.96589e-05 -0.0187433
28 1 9.43575 7.21418 4.22422 0.00313478 -0.00404191 0.00886664
29 2 9.19142 6.33863 4.60221 0.00371529 -0.0213862 -0.00167739
30 2 9.26461 7.93091 4.87671 -0.023057 0.00451408 -0.00541569
31 1 4.18599 10.9394 5.76066 0.0045437 -2.40751e-05 0.00189732
32 2 3.60823 11.6937 5.58417 0.000534679 -0.0323702 0.00914035
33 2 4.64543 10.8159 4.84458 0.00905681 -0.00808211 -0.00139311
34 1 8.05848 4.90811 9.02217 0.00141456 0.00234668 -0.00110084
35 2 7.80485 13.8488 9.14902 0.00665963 -0.0146753 0.0240459
36 2 7.70089 5.25608 9.83304 -0.00315769 -0.0120776 -0.00492557
37 1 8.24139 11.7411 10.3671 -0.00953695 -0.00776464 0.000687906
38 2 9.44367 11.9118 9.08713 -0.00332005 -0.00902983 -0.00963482
39 2 8.75057 11.2251 10.933 0.00732608 -0.0249302 -0.0110546
40 1 3.00984 13.498 5.2243 -0.0044302 0.00725121 0.00132131
41 2 3.68654 4.69164 4.22443 0.00918382 -0.0221671 -0.0415497
42 2 11.8955 13.6654 4.93626 0.00103169 0.0199843 -0.0169844
43 1 3.93965 5.54001 3.64581 0.00357672 0.000423371 -0.00692774
44 2 12.3606 7.87436 4.90337 0.00894672 -0.00832488 0.00524837
45 2 8.10652 12.8824 3.81812 -0.0248619 0.00290555 -0.0024087
46 1 9.92146 12.2541 8.25917 -0.00482384 -0.000384816 -0.000536973
47 2 8.46657 12.5186 7.28395 0.0124695 0.0120651 -0.0115862
48 2 10.6223 11.7064 8.01716 0.0131089 -0.00374992 -0.0121773
49 1 10.1626 6.52606 8.01459 0.00137896 0.00109397 -0.00797404
50 2 9.42734 5.90464 7.76508 0.0197074 -0.011286 -0.0336109
51 2 9.90617 6.6867 8.97934 0.00724335 -0.00566871 0.0131991
52 1 8.96613 11.1678 4.64686 0.000179562 -0.00356671 0.00420741
53 2 9.28866 10.4053 5.09296 -0.00249325 -0.000989056 0.00579034
54 2 8.44074 11.5868 5.31127 -0.0113975 0.0407315 0.00913648
55 1 5.21526 11.1522 3.34753 -0.00631194 -0.000272357 -0.000615668
56 2 5.85798 10.4689 3.30378 -0.0108519 -0.0238931 -0.0123753
57 2 4.42947 10.7209 3.04422 0.00838856 0.00282474 0.0211998
58 1 6.09506 10.1108 9.75164 0.000660933 0.00259513 -0.00982402
59 2 4.45478 13.8249 7.68647 -0.00140108 0.00365423 0.0369745
60 2 7.37843 11.1858 10.187 -0.0314091 -0.00552476 0.0118501
61 1 7.75214 5.6986 6.1177 0.00241016 0.00178605 0.000314566
62 2 7.78759 5.70952 7.07526 0.0134651 -0.00139986 -0.00229524
63 2 6.89091 6.15221 5.90809 -0.0184099 0.0187544 -0.0038794
64 1 5.36271 12.3941 7.8376 0.0070068 -0.00264725 -0.000126123
65 2 5.09027 11.7192 7.22299 -0.0217539 0.0117614 -0.00453412
66 2 3.20746 4.2745 5.992 -0.00247902 -0.0366928 -0.0146976
67 1 11.5542 9.99593 7.91251 0.00224797 -0.00390612 0.000875018
68 2 12.2726 9.62577 7.40937 -0.00560292 -0.00678888 0.0131041
69 2 11.6509 9.65345 8.87687 0.00244236 0.0220376 0.0162325
70 1 10.2799 4.10635 4.58253 0.00485592 -0.00127953 0.00504301
71 2 9.97948 4.21561 3.65263 0.000893038 0.0114627 -6.87864e-05
72 2 9.47593 13.6277 4.94563 -0.0216972 -0.0327367 0.00900278
73 1 9.54625 8.91419 6.47847 -0.00349188 0.00233195 0.00297063
74 2 9.67663 8.06191 6.84405 -0.0192925 -0.0125521 -0.00269501
75 2 10.0027 9.58031 7.0658 0.00975422 0.0116041 0.0235311
76 1 12.1167 4.96187 9.83244 -0.00112964 0.00575423 -0.00461445
77 2 11.5972 5.42519 9.18861 0.0101312 -0.0141333 -0.010116
78 2 4.01559 5.80326 10.4305 -0.0126752 0.00618516 -0.0144628
79 1 12.053 8.60692 10.0258 -0.00750018 0.00062917 0.00122258
80 2 12.1253 9.27023 10.7952 0.0129455 -0.0160397 -0.0216464
81 2 5.87677 10.9185 9.21657 -0.0278756 -0.00667033 0.0207433
82 1 7.3064 5.62039 11.7686 -0.000505971 0.00851641 0.00754918
83 2 7.33915 5.11261 2.79083 -0.022803 0.0220523 -0.0012726
84 2 6.44696 5.42513 11.3485 -0.0167233 -0.0056233 0.0183904
85 1 10.1248 4.12012 11.5435 -0.00242211 -0.00219803 -0.000168623
86 2 9.69031 4.9388 11.2678 0.00588252 0.0228307 0.00780629
87 2 11.3964 4.50313 10.3194 -0.0171881 -0.00201748 -0.00190082
88 1 7.75454 12.7651 6.7061 -0.000246784 -0.00806868 0.000690348
89 2 6.21977 12.7586 7.47453 0.0177564 0.0092449 0.032805
90 2 8.02397 13.6621 6.4701 -0.0208438 0.0122129 -0.00563259
91 1 5.22798 6.55804 5.74563 0.000226201 0.00457618 0.000466356
92 2 4.15677 7.68178 6.39593 -0.0101724 -0.00334174 -0.00583236
93 2 4.79142 5.78194 6.36018 0.00104695 0.00297767 -0.0115759
94 1 3.75469 4.71459 7.49004 -1.64845e-05 0.00222504 -0.00589569
95 2 3.0229 4.36492 8.0411 0.00431321 0.000740863 0.0169319
96 2 4.82599 6.30376 4.8369 0.00464509 0.0125863 -0.0279652
ITEM: TIMESTEP
4
ITEM: NUMBER OF ATOMS
96
ITEM: BOX BOUNDS pp pp pp
2.9236100000000000e+00 1.2773600000000000e+01
4.0306300000000004e+00 1.3880599999999999e+01
2.1372399999999998e+00 1.1987200000000000e+01
ITEM: ATOMS id type x y z vx vy vz
1 1 7.32299 13.3746 3.55923 0.00307994 0.00195483 0.00276407
2 2 6.68865 12.6455 3.35691 0.0279351 0.00660712 -0.00189462
3 2 9.57896 13.287 11.1925 -0.0414866 -0.00683227 -0.0228952
4 1 12.4642 9.85312 2.55129 -0.000658996 0.00237663 -0.00395614
5 2 11.5396 10.0378 2.69395 0.0132925 -0.0106955 -0.00188554
6 2 12.6246 8.94319 2.79123 -0.0016752 0.0138003 -0.0425441
7 1 12.0808 7.66734 3.95818 -0.00132175 -0.00239309 -0.00267513
8 2 11.1354 7.28279 3.947 0.00553399 -0.00487396 -0.00265407
9 2 7.50493 8.77744 6.95601 0.0156801 0.00144737 0.0111069
10 1 6.8932 8.5025 7.61485 -0.000929279 -0.00735442 0.000483408
11 2 6.6929 7.61771 7.28088 0.0105375 -0.0030135 -0.0226227
12 2 6.42123 9.4374 9.07052 0.000854201 -0.00995489 0.00704574
13 1 6.89441 8.68412 2.48486 0.00504797 0.00562854 -0.00305775
14 2 6.28037 9.01004 11.6631 -0.0347097 -0.0141191 0.0240171
15 2 7.01722 7.74864 2.25871 0.0221602 -0.00269575 0.0120846
16 1 9.65793 7.40617 11.1472 0.00699938 0.00339917 -0.0010506
17 2 9.92979 7.32773 2.19954 0.0123945 -0.014992 -0.0132479
18 2 8.72855 7.23082 11.3106 0.0126676 -0.00388182 0.011727
19 1 4.74223 6.04836 10.9601 0.00239104 -0.00249026 0.0126369
20 2 4.33311 5.98397 11.926 0.0125902 -0.00502627 -0.000519763
21 2 11.2614 8.03391 10.2004 0.0151559 0.0135218 0.016694
22 1 9.9872 10.1508 11.8394 -0.000931766 -0.00125358 0.00179389
23 2 9.50518 10.2772 2.83466 -0.00765975 -0.0219107 0.00187394
24 2 9.89 9.17549 11.6487 -0.0316801 0.00301277 0.0151707
25 1 3.39693 8.39021 6.30182 0.000786694 0.00462335 -0.00363136
26 2 3.85899 9.2681 6.21749 0.0102581 -0.00823907 0.00356404
27 2 3.23621 6.24519 3.83349 0.0106885 -0.00135461 -0.0198659
28 1 9.43734 7.21215 4.22861 0.00324058 -0.00409931 0.00871237
29 2 9.19318 6.32903 4.60197 0.00334775 -0.0165761 0.000681243
30 2 9.2531 7.93211 4.87414 -0.0229411 0.000161724 -0.00481047
31 1 4.18828 10.9394 5.76158 0.00466816 -0.000152467 0.00181641
32 2 3.60803 11.678 5.58915 -0.00180371 -0.0298196 0.0104999
33 2 4.65015 10.8118 4.8448 0.00974143 -0.00813911 0.00228218
34 1 8.05916 4.90928 9.02161 0.00128133 0.00228285 -0.00114986
35 2 7.80861 13.8407 9.1605 0.00866728 -0.0166883 0.021646
36 2 7.69942 5.25091 9.831 -0.0027831 -0.00834734 -0.00309782
37 1 8.23646 11.7373 10.3673 -0.010173 -0.00760498 0.000206743
38 2 9.44257 11.9073 9.08167 -0.00110867 -0.00904031 -0.0121186
39 2 8.75571 11.2112 10.929 0.0127501 -0.0299918 -0.0055244
40 1 3.00761 13.5016 5.22491 -0.00448334 0.00709366 0.00106841
41 2 3.69109 4.68087 4.20298 0.00880691 -0.0207968 -0.0439665
42 2 11.8967 13.6752 4.92813 0.00326736 0.0192753 -0.0155172
43 1 3.94141 5.54025 3.6424 0.00346997 0.000552297 -0.00672985
44 2 12.3647 7.87035 4.90599 0.00744964 -0.00779661 0.00485192
45 2 8.094 12.8838 3.81687 -0.0241667 0.00229257 -0.00226402
46 1 9.91894 12.254 8.25897 -0.00520692 -3.71111e-05 -0.000299502
47 2 8.47411 12.5233 7.2798 0.0177092 0.00670575 -0.00504855
48 2 10.6302 11.7028 8.0111 0.0174151 -0.0101621 -0.0117557
49 1 10.1631 6.52657 8.01072 0.000891631 0.000921049 -0.00750217
50 2 9.43844 5.8999 7.74863 0.0245007 -0.00765091 -0.0319043
51 2 9.91049 6.68378 8.98398 0.00991233 -0.00622314 0.00485834
52 1 8.96623 11.166 4.64888 0.000180682 -0.00350761 0.00392459
53 2 9.28794 10.4037 5.09628 -0.000625169 -0.00511266 0.00762151
54 2 8.4343 11.6079 5.31649 -0.0134745 0.042941 0.0108949
55 1 5.21213 11.1521 3.34723 -0.00615543 7.49003e-06 -0.000552436
56 2 5.85355 10.4558 3.29726 -0.00716821 -0.0277831 -0.0136101
57 2 4.4326 10.7219 3.05393 0.00338845 0.00130208 0.0173888
58 1 6.09543 10.1122 9.74667 0.000792353 0.00270115 -0.010005
59 2 4.4541 13.8272 7.70429 -0.00132245 0.0060868 0.0339952
60 2 7.36396 11.1835 10.1931 -0.0260096 -0.00328833 0.012685
61 1 7.75336 5.69951 6.11787 0.00242504 0.00188393 0.000343486
62 2 7.79453 5.7085 7.07463 0.0141715 -0.00261147 -0.000299863
63 2 6.88185 6.16127 5.90572 -0.0171026 0.0170106 -0.00528062
64 1 5.36623 12.3928 7.83763 0.00706674 -0.00244364 0.000244632
65 2 5.07869 11.7243 7.21969 -0.0241167 0.00918074 -0.00871367
66 2 3.20599 4.25607 5.98516 -0.00324198 -0.0361602 -0.0118377
67 1 11.5553 9.99407 7.91295 0.00196574 -0.00354888 0.000901333
68 2 12.2703 9.62177 7.41557 -0.0034852 -0.00939065 0.0115361
69 2 11.6522 9.66428 8.88465 0.00259003 0.0213248 0.0146412
70 1 10.2823 4.10577 4.58499 0.0044963 -0.0010879 0.00482149
71 2 9.98093 4.22131 3.65257 0.00500129 0.0112519 0.000227551
72 2 9.4646 13.6107 4.95115 -0.0222138 -0.0345055 0.0123642
73 1 9.54445 8.91548 6.47989 -0.00367089 0.00281588 0.00275071
74 2 9.6677 8.05438 6.84393 -0.0164746 -0.0169011 0.00202086
75 2 10.0079 9.58523 7.07752 0.0108346 0.00731646 0.0228192
76 1 12.1161 4.96472 9.83013 -0.00127679 0.00561307 -0.00458587
77 2 11.6024 5.41914 9.18252 0.0105628 -0.0099148 -0.0144849
78 2 4.0081 5.80581 10.4218 -0.0163946 0.00431966 -0.0193795
79 1 12.0492 8.60721 10.0264 -0.00749505 0.000511787 0.00141423