ITEM: TIMESTEP
0
ITEM: NUMBER OF ATOMS
96
ITEM: BOX BOUNDS pp pp pp
2.92361 12.7736
4.03063 13.8806
2.13724 11.9872
ITEM: ATOMS id type x y z vx vy vz
1 1 7.31446 13.3676 3.55227 0.00345542 0.0037799 0.00270968
2 2 6.63732 12.6572 3.36932 0.0102298 -0.0160545 -0.00867901
3 2 9.64945 13.2757 11.2284 -0.0116704 0.0212953 -0.00359139
4 1 12.469 9.84787 2.55954 -0.00258326 0.00229023 -0.00281595
5 2 11.4786 10.073 2.70439 0.0247373 -0.0142099 -0.00488234
6 2 12.6234 8.89524 2.91041 0.00549598 0.0138517 -0.0490405
7 1 12.0841 7.67129 3.96431 -0.00126564 -0.00076517 -0.00214308
8 2 11.132 7.30905 3.97127 -0.00134715 -0.0152888 -0.0152244
9 2 7.4885 8.78846 6.91814 -0.000648411 -0.00799761 0.0178254
10 1 6.8946 8.51954 7.61383 -0.000281082 -0.0064003 0.000369416
11 2 6.65871 7.62932 7.34112 0.0159551 -0.00630382 -0.0242658
12 2 6.40875 9.47955 9.07221 0.00805199 -0.0191656 -0.00904958
13 1 6.881 8.66992 2.49208 0.00570422 0.00555581 -0.00268777
14 2 6.37904 9.04102 11.6048 -0.0432125 -0.0120464 0.0223037
15 2 6.95715 7.76069 2.2314 0.0246697 -0.00328225 0.00944651
16 1 9.64013 7.39771 11.1495 0.00720812 0.00333489 -0.00113924
17 2 9.91654 7.36166 2.24366 0.00231042 -0.0121162 -0.0153863
18 2 8.6889 7.2368 11.2679 0.0151851 -0.00108882 0.0208769
19 1 4.73631 6.05491 10.9332 0.00213054 -0.00282926 0.00877574
20 2 4.33774 5.99978 11.8781 -0.015949 -0.00780145 0.0351815
21 2 11.2442 8.02498 10.1629 -0.00517293 -0.00863293 0.0134222
22 1 9.98889 10.1532 11.8352 -0.000664565 -0.000847337 0.00170356
23 2 9.52529 10.3288 2.82688 -0.00736986 -0.0166331 0.00360997
24 2 9.96032 9.18359 11.6141 -0.0226373 -0.00845626 0.0103459
25 1 3.39654 8.37779 6.31136 -0.000435773 0.00515145 -0.003989
26 2 3.82768 9.27905 6.20145 0.0148265 0.00048488 0.00909006
27 2 3.21257 6.2395 3.87291 0.00526815 0.00620554 -0.00965701
28 1 9.42998 7.22229 4.20581 0.00260871 -0.00416035 0.0095644
29 2 9.18168 6.39285 4.61551 0.00650221 -0.0287483 -0.0116544
30 2 9.31047 7.90818 4.88962 -0.0225607 0.0157715 -0.00750542
31 1 4.17685 10.9397 5.75643 0.0048218 -0.000505869 0.00230962
32 2 3.60486 11.7586 5.5749 5.16962e-05 -0.028413 -0.00102095
33 2 4.63142 10.8299 4.85984 0.00414976 -0.00534809 -0.0119914
34 1 8.05526 4.90398 9.02421 0.00177658 0.00150019 -0.000990713
35 2 7.79575 13.8624 9.09508 0.00383261 0.00268135 0.0282001
36 2 7.70983 5.28986 9.84688 -0.00631735 -0.0187644 -0.00700667
37 1 8.25818 11.7576 10.3637 -0.00757222 -0.00875716 0.00256433
38 2 9.45881 11.9303 9.09634 -0.0112369 -0.00951507 -0.000239716
39 2 8.75993 11.2535 10.98 -0.0151128 -0.00530211 -0.0342461
40 1 3.01851 13.4836 5.22172 -0.00427909 0.00681483 0.000825783
41 2 3.66955 4.73973 4.29398 0.00658114 -0.0250434 -0.0266777
42 2 11.9035 13.6224 4.9752 -0.00855241 0.02305 -0.0212536
43 1 3.93164 5.53984 3.66052 0.00458906 -0.000295937 -0.00781558
44 2 12.3395 7.89448 4.89648 0.0108458 -0.0123904 -0.000257777
45 2 8.14564 12.8782 3.81947 -0.00978049 0.000102778 0.00234364
46 1 9.92911 12.2565 8.26134 -0.00282111 -0.00207498 -0.00158338
47 2 8.45856 12.4753 7.3295 -0.00109881 0.0283996 -0.0302053
48 2 10.6205 11.6834 8.04025 -0.0114852 0.0266278 -0.010449
49 1 10.1579 6.52314 8.03202 0.00301079 0.00179157 -0.00914057
50 2 9.40663 5.93873 7.83399 0.00303179 -0.0200954 -0.0325782
51 2 9.90244 6.69935 8.93146 -0.00275408 -0.00903521 0.0269626
52 1 8.96635 11.1746 4.63683 -0.0005643 -0.00298609 0.00584378
53 2 9.30301 10.3903 5.08498 -0.0116262 0.0142515 0.00443785
54 2 8.44467 11.5242 5.30975 0.00989786 0.0195642 -0.00963951
55 1 5.22761 11.1539 3.34879 -0.00572659 -0.00134637 -0.000533209
56 2 5.89564 10.4959 3.32249 -0.0254747 -0.00289078 -0.00596143
57 2 4.40538 10.7129 2.99144 0.00976494 0.00318377 0.0289789
58 1 6.09422 10.1065 9.76985 0.000222584 0.00151145 -0.008202
59 2 4.45777 13.8226 7.60537 -0.00133591 0.000855682 0.0420282
60 2 7.45518 11.2029 10.1654 -0.0416449 -0.00981061 0.0103494
61 1 7.74808 5.69508 6.11749 0.00135647 0.00188567 -0.000257238
62 2 7.76474 5.70663 7.08729 0.0091671 0.00444946 -0.0087792
63 2 6.92252 6.11405 5.90578 -0.00915503 0.0170229 0.00765117
64 1 5.34915 12.3999 7.83887 0.00645657 -0.0030465 -0.00084771
65 2 5.11915 11.684 7.21846 -0.00568926 0.0222615 0.00640187
66 2 3.20734 4.33774 6.02257 0.00294913 -0.0217107 -0.0123745
67 1 11.549 10.005 7.91053 0.00268957 -0.00500112 0.00126698
68 2 12.2867 9.63236 7.38028 -0.00557974 -0.00152932 0.0142467
69 2 11.6471 9.60596 8.84159 0.00127352 0.0255105 0.0177378
70 1 10.27 4.11002 4.57144 0.00456715 -0.00245696 0.00602718
71 2 9.99238 4.19308 3.64775 -0.012705 0.0107952 0.00721158
72 2 9.49925 13.6794 4.95051 0.00356949 -0.0174584 -0.016254
73 1 9.55214 8.91106 6.4712 -0.00228559 0.00113373 0.00438494
74 2 9.72583 8.06465 6.8684 -0.0290418 0.00928282 -0.0203186
75 2 9.99267 9.55158 7.02316 -0.0017281 0.0121903 0.016418
76 1 12.1185 4.95031 9.84116 -0.000730531 0.00557687 -0.00383036
77 2 11.5823 5.4658 9.19709 0.00315201 -0.023639 -0.00176818
78 2 4.01738 5.78006 10.4301 0.011908 0.0175595 0.0163391
79 1 12.0675 8.60541 10.0248 -0.00679421 0.000780463 -0.000464242
80 2 12.0967 9.28532 10.8311 0.0150205 0.0031555 -0.0120372
81 2 5.92814 10.9157 9.18594 -0.0229079 0.00933868 0.00676551
82 1 7.30814 5.60362 11.7543 -0.00144472 0.00818294 0.006731
83 2 7.37739 5.07256 2.76979 -0.0142196 0.0181026 0.0228716
84 2 6.47226 5.43822 11.3199 -0.00647564 -0.00625244 0.0101293
85 1 10.1313 4.12594 11.5449 -0.00419274 -0.00359712 -0.00135553
86 2 9.66875 4.89412 11.251 0.0171026 0.0189637 0.0098764
87 2 11.4367 4.49698 10.3372 -0.0206168 0.00899198 -0.0166157
88 1 7.7546 12.7811 6.70376 1.27329e-05 -0.00780484 0.00142574
89 2 6.19001 12.7428 7.41091 0.011661 0.00493115 0.029109
90 2 8.05368 13.6608 6.46884 -0.00989674 -0.0105588 0.00609811
91 1 5.22538 6.54639 5.74696 0.0021818 0.00684625 -0.00195041
92 2 4.1637 7.70304 6.3992 0.0025387 -0.0171248 0.00226788
93 2 4.8132 5.81439 6.36211 -0.0215153 -0.0327262 0.006944
94 1 3.75537 4.70908 7.5021 -0.000598977 0.00304737 -0.00583958
95 2 3.00662 4.37649 8.01405 0.0117611 -0.010154 0.00843454
96 2 4.82551 6.28502 4.8882 -0.00245311 0.00657978 -0.018098
