ITEM: TIMESTEP
0
ITEM: NUMBER OF ATOMS
96
ITEM: BOX BOUNDS pp pp pp
2.9236100000000000e+00 1.2773600000000000e+01
4.0306300000000004e+00 1.3880599999999999e+01
2.1372399999999998e+00 1.1987200000000000e+01
ITEM: ATOMS id type x y z vx vy vz
1 1 7.2287 13.3823 3.54387 0.00465053 0.00158909 0.00493247
2 2 6.58865 12.6569 3.42084 -0.00183635 0.0049676 0.0170803
3 2 9.46803 13.1601 11.3303 -0.00807466 0.00126597 0.0171375
4 1 12.5809 9.80267 2.76445 -0.000582909 0.00422778 -0.00343447
5 2 11.839 10.3849 2.37779 0.01778 0.0172187 0.00124823
6 2 12.2074 8.94379 3.15867 0.0207826 -0.0013531 -0.00292455
7 1 12.1039 7.51982 4.29165 0.00156545 -0.0045887 0.000780494
8 2 11.1137 7.3554 4.26469 -0.014705 0.00286133 -0.00213295
9 2 7.73191 8.43826 7.10098 -0.0127055 -0.023403 0.00627798
10 1 7.00774 8.44252 7.71187 0.000138118 0.00217468 -0.00204486
11 2 6.26269 8.15846 7.22774 -0.00194206 0.000667876 -0.0100204
12 2 6.70307 9.49359 9.14041 -0.00822033 0.00860944 -0.00568059
13 1 7.00001 8.57471 2.62985 0.00497305 0.0103604 -0.00170131
14 2 6.62448 8.99683 11.701 0.0170865 0.0130382 -0.0178561
15 2 7.32993 7.65799 2.4289 0.0113583 0.0339531 0.00939508
16 1 9.69701 7.19406 10.9665 0.00148852 -0.00614726 -0.00222706
17 2 10.1811 7.15145 11.8093 -0.00870519 0.00784042 0.0193034
18 2 8.81403 6.75861 11.1436 0.000486394 -0.0103361 0.0049881
19 1 4.91127 5.77211 10.659 -0.00128611 -0.000359218 -0.00124445
20 2 4.51701 5.94807 11.5289 -0.00532461 -0.000635242 0.00482335
21 2 11.175 8.21087 10.4652 -0.0122412 0.0101658 0.00929025
22 1 10.0173 10.2391 11.7163 0.00263191 -0.00205978 -0.00175149
23 2 9.68478 10.4779 2.74288 -0.00319583 -0.0162507 -0.00863332
24 2 9.65835 9.34103 11.5556 -0.0216758 0.0060638 0.0301372
25 1 3.56757 8.67502 6.32543 0.00711507 0.00658051 -0.00160875
26 2 3.882 9.46753 5.84653 -0.00946128 -0.0011225 0.0131239
27 2 3.25233 6.22692 3.90298 -0.00633987 0.0130249 0.0079788
28 1 9.44094 7.21471 4.09772 0.000276859 -0.00178754 0.00283317
29 2 9.14591 6.53844 4.76296 0.00176159 -0.0187126 -0.00309378
30 2 9.04256 7.98774 4.51859 -0.0129745 -0.0158105 -0.00490752
31 1 4.18018 11.2177 5.66385 -0.0048555 -0.000793375 0.000319151
32 2 3.56814 12.0312 5.56907 -0.0185999 -0.00880135 0.0103667
33 2 4.70028 11.3225 4.81701 -0.00576249 -0.00929864 0.0246571
34 1 7.56391 5.15173 8.97032 -0.00173518 -0.0028447 -0.00338078
35 2 7.64301 4.21149 9.15831 0.00129004 -0.00528005 -0.017013
36 2 6.9589 5.45531 9.59162 0.00236215 -0.00496228 0.00551005
37 1 8.14516 11.8104 10.5556 -0.00105905 0.00497072 0.00127021
38 2 9.17928 12.079 9.06249 0.0167392 0.00230849 0.00494259
39 2 8.64334 11.1269 11.0958 0.000612706 -0.0295012 -0.0300962
40 1 3.06964 13.5066 5.18983 -0.00724014 -0.000398519 0.00667672
41 2 3.71387 4.62644 4.08067 0.0237278 -0.0166581 -0.0211555
42 2 11.9538 13.5097 5.09654 -0.0138498 -0.0247813 -0.00619713
43 1 3.96404 5.56114 3.69685 0.00122977 -0.00287786 -0.000924857
44 2 12.3847 7.90054 5.12386 -0.00983405 -0.00725522 0.0232391
45 2 8.02261 12.9247 3.57744 0.0101866 -0.0306545 -0.0176227
46 1 9.74088 12.3207 8.31781 0.00136532 0.00584793 4.15807e-05
47 2 8.54804 12.6558 7.06628 -0.0143813 -0.0255531 0.00619039
48 2 10.343 11.5855 8.16731 0.0138245 -0.00201832 0.00160964
49 1 10.1576 6.49501 8.18058 0.00190089 0.00787829 0.00248453
50 2 9.39815 5.84478 8.10636 -0.0295734 -0.00365917 -0.0434134
51 2 10.0172 6.87004 9.05613 0.0128397 -0.00931039 -0.027141
52 1 9.09624 10.9458 4.45601 -0.00862475 0.00380228 0.00840954
53 2 9.2927 10.2212 5.00343 -0.0276419 0.0265726 -0.0095366
54 2 8.72142 11.6091 5.08238 -0.00845376 -0.0126252 0.00845499
55 1 5.11985 11.1377 3.2527 0.00495651 -0.00125466 0.000703377
56 2 5.73336 10.3906 3.29273 -0.0106191 -0.0362936 -0.0116142
57 2 4.29561 10.7197 2.98302 -0.021667 -0.010571 0.0149629
58 1 6.2434 10.1396 9.7679 0.00389318 0.00199874 0.00393294
59 2 4.50186 13.6543 7.76867 0.00827739 0.0245965 0.0139742
60 2 7.31169 11.3584 10.2381 0.00609448 0.00492788 0.00409666
61 1 7.82553 5.54205 6.41618 0.00362824 -0.00373881 -0.00656682
62 2 7.7039 5.675 7.40365 0.00356436 -0.00163539 0.00612079
63 2 6.92623 5.79194 6.09856 -0.01453 0.00537097 0.0236965
64 1 5.32967 12.4013 7.90084 -0.00491711 -0.00399496 -0.000335589
65 2 4.93553 11.9319 7.15871 -0.00326545 -0.0410727 0.00391845
66 2 3.27429 4.23716 6.38288 -0.00470351 0.0263511 0.00242487
67 1 11.3758 9.97012 7.7583 -0.000907432 -0.00509818 -0.00211478
68 2 12.0005 9.57048 7.09645 -0.0364389 -0.0280593 -0.00255628
69 2 11.7121 9.52745 8.58474 -0.0231136 -0.00362633 -0.0110372
70 1 10.2869 4.23818 4.57342 0.00485234 -0.00255511 -0.00398348
71 2 10.2486 4.19617 3.61646 -0.000305654 -0.00841225 -0.0231366
72 2 9.41486 4.55478 4.88873 0.0123272 0.00586732 -0.0468713
73 1 9.41801 8.75756 6.24746 0.00259469 0.00192423 0.00297745
74 2 9.58875 7.88515 6.60522 0.0010052 -0.00724791 -0.00650777
75 2 9.91332 9.35581 6.84248 -0.00540556 -0.0180166 -0.00376172
76 1 12.1612 4.91955 9.70269 -0.000741498 -0.00161365 0.00157455
77 2 11.5064 5.58688 9.22312 0.0106875 0.0166813 0.0114942
78 2 4.11307 5.52154 10.1018 -0.00376799 0.000212315 -0.00101975
79 1 11.9233 8.69089 10.1236 -0.00537721 0.0108614 -0.000715023
80 2 12.2036 9.34825 10.7865 -0.00264224 0.00334364 0.0031456
81 2 5.61506 10.6719 9.20978 0.00886384 -0.032638 -0.0224936
82 1 7.42131 5.86228 11.818 0.00361578 -0.0018853 -0.00139103
83 2 7.3305 4.96246 2.44653 -0.0257625 0.0276402 -0.0118613
84 2 6.50068 6.01347 11.4344 0.012329 0.0241466 -0.0130197
85 1 10.1062 13.816 11.5972 -0.00193906 -0.00414157 0.00353455
86 2 9.66816 4.83086 11.4271 -0.0172491 -0.00742277 -0.00498129
87 2 11.5313 4.40727 10.332 -0.0095012 -0.01647 -0.030186
88 1 7.71382 12.7855 6.57682 -0.00124686 -0.00208779 -0.00256242
89 2 6.31424 12.6419 7.54408 -0.0015794 -0.00849365 -0.0179903
90 2 7.75725 13.8028 6.25223 0.0188831 -0.0159367 -0.0231691
91 1 5.35176 6.50263 5.80951 -0.00195645 -0.000599098 0.00911616
92 2 4.35493 8.06097 6.35472 0.0105525 -0.0038345 -0.017949
93 2 5.00818 5.85743 6.44382 -0.00256108 0.0320515 0.0133479
94 1 3.79551 4.69594 7.50337 0.00285304 -0.00132866 -0.00560574
95 2 3.04411 4.55471 8.17316 0.0206888 -0.00575479 0.0406753
96 2 4.86968 6.24623 4.89325 -0.00422389 0.0122782 -0.014916
ITEM: TIMESTEP
1
ITEM: NUMBER OF ATOMS
96
ITEM: BOX BOUNDS pp pp pp
2.9236100000000000e+00 1.2773600000000000e+01
4.0306300000000004e+00 1.3880599999999999e+01
2.1372399999999998e+00 1.1987200000000000e+01
ITEM: ATOMS id type x y z vx vy vz
1 1 7.23091 13.3831 3.54632 0.00426879 0.00168652 0.00486241
2 2 6.58785 12.6599 3.42937 -0.00137227 0.00704906 0.0170347
3 2 9.46356 13.1606 11.3386 -0.00982174 0.00054695 0.0159978
4 1 12.5805 9.80479 2.7627 -0.000846237 0.00425237 -0.00357473
5 2 11.8486 10.3916 2.3796 0.0200276 0.00961923 0.00584746
6 2 12.2181 8.94479 3.15661 0.0215282 0.00516968 -0.00521001
7 1 12.1047 7.51753 4.29189 0.00154083 -0.00455019 0.000228424
8 2 11.1056 7.35677 4.26422 -0.0170187 0.00268727 0.000217454
9 2 7.72634 8.42665 7.10336 -0.00908839 -0.0230265 0.00298931
10 1 7.00781 8.44364 7.71095 7.89958e-05 0.0022939 -0.00163439
11 2 6.2608 8.15817 7.22188 -0.00539529 -0.00172508 -0.0131338
12 2 6.6981 9.49885 9.13793 -0.0112252 0.0120431 -0.00407035
13 1 7.0025 8.57989 2.62903 0.00494794 0.0104012 -0.00158353
14 2 6.63341 9.00255 11.6918 0.0187285 0.00974748 -0.0185602
15 2 7.33498 7.67627 2.43334 0.00913873 0.0383823 0.00814085
16 1 9.69774 7.19098 10.9654 0.00144169 -0.00619579 -0.00214591
17 2 10.176 7.15517 11.819 -0.0119754 0.00710023 0.0190361
18 2 8.81515 6.75381 11.1462 0.00405425 -0.00879983 0.00518373
19 1 4.91056 5.77193 10.6584 -0.00158116 -0.000352054 -0.00134047
20 2 4.51436 5.94741 11.5311 -0.00511464 -0.0020414 0.00383854
21 2 11.1682 8.21582 10.4702 -0.014757 0.00981879 0.0106
22 1 10.0186 10.2381 11.7154 0.00256699 -0.00212773 -0.00188142
23 2 9.68305 10.4698 2.73922 -0.00362274 -0.0157385 -0.00582072
24 2 9.64775 9.3442 11.5708 -0.020601 0.00640401 0.0301312
25 1 3.57117 8.67824 6.32464 0.00727074 0.00625431 -0.00151497
26 2 3.87735 9.46755 5.85298 -0.00889774 0.00165057 0.0123282
27 2 3.24878 6.23272 3.90706 -0.0075683 0.00964311 0.00832296
28 1 9.44104 7.21374 4.09919 0.00011882 -0.0021009 0.00305125
29 2 9.14733 6.52927 4.76049 0.00392294 -0.0177645 -0.00680518
30 2 9.0363 7.9805 4.51576 -0.0121877 -0.0129268 -0.00616522
31 1 4.17775 11.2173 5.66404 -0.00488164 -0.000680877 0.000485107
32 2 3.55778 12.0272 5.57492 -0.022705 -0.00696645 0.0128288
33 2 4.6985 11.3171 4.82889 -0.00108161 -0.0121352 0.0221849
34 1 7.56314 5.15026 8.96862 -0.00137252 -0.00302421 -0.00341764
35 2 7.64356 4.2087 9.14987 0.000898848 -0.00586169 -0.0167355
36 2 6.95866 5.45329 9.59574 -0.00311673 -0.00327634 0.0107882
37 1 8.14466 11.8129 10.5562 -0.000914583 0.00499373 0.00132872
38 2 9.18713 12.0798 9.06597 0.0146332 0.00107709 0.00897229
39 2 8.64371 11.1125 11.0803 0.000983481 -0.0276715 -0.0319663
40 1 3.066 13.5065 5.19333 -0.00732287 -0.000179642 0.00728009
41 2 3.7252 4.61878 4.07046 0.02139 -0.0136786 -0.0195172
42 2 11.9474 13.4977 5.09345 -0.0115779 -0.0232626 -0.00602355
43 1 3.96475 5.55971 3.69636 0.00158678 -0.00282 -0.00103026
44 2 12.38 7.89752 5.13715 -0.00907706 -0.00513279 0.0291945
45 2 8.02935 12.9084 3.56876 0.0157894 -0.033819 -0.0171486
46 1 9.74158 12.3237 8.31778 0.00144691 0.00601744 -0.000170619
47 2 8.54125 12.6427 7.07006 -0.0126263 -0.0265784 0.00894938
48 2 10.3502 11.5839 8.16802 0.0146811 -0.00372732 0.00126881
49 1 10.1585 6.49887 8.18182 0.00163464 0.00748098 0.00238074
50 2 9.38453 5.84405 8.08466 -0.0240769 0.00148489 -0.0429399
51 2 10.0236 6.86557 9.04263 0.0123906 -0.00820019 -0.0255809
52 1 9.09188 10.9478 4.46019 -0.00882271 0.00439368 0.00825465
53 2 9.27919 10.2331 4.99945 -0.0260358 0.0199406 -0.00566453
54 2 8.71734 11.6024 5.0861 -0.00811505 -0.0135873 0.00667726
55 1 5.12241 11.1371 3.25303 0.00525784 -0.00124467 0.000624375
56 2 5.72847 10.3722 3.28684 -0.00927273 -0.0365847 -0.0119561
57 2 4.28373 10.7141 2.99014 -0.025005 -0.0109906 0.0138075
58 1 6.24532 10.1406 9.76983 0.00379903 0.00189852 0.00375271
59 2 4.5057 13.6672 7.77521 0.00725053 0.0265824 0.011823
60 2 7.31457 11.3606 10.2401 0.00515685 0.00396572 0.00368584
61 1 7.82736 5.5402 6.41285 0.00364381 -0.00363883 -0.00672236
62 2 7.7063 5.67408 7.40682 0.00627439 -0.00222868 0.00608944
63 2 6.91843 5.79489 6.10914 -0.0162375 0.00626272 0.0185149
64 1 5.32735 12.3994 7.9007 -0.00437453 -0.00374203 -0.000278485
65 2 4.93317 11.9105 7.15953 -0.00595161 -0.0440989 -1.76772e-05
66 2 3.2716 4.24896 6.38139 -0.0062388 0.0205362 -0.00835623
67 1 11.3754 9.96753 7.75723 -0.000684492 -0.00521922 -0.00218628
68 2 11.9818 9.55712 7.09496 -0.0381006 -0.0255931 -0.00367561
69 2 11.6998 9.52588 8.57988 -0.0259114 -0.00293172 -0.00795124
70 1 10.2893 4.23691 4.57151 0.00479129 -0.00254964 -0.00374627
71 2 10.2481 4.19196 3.60431 -0.00128749 -0.0084857 -0.0248146
72 2 9.42157 4.55747 4.86485 0.0139382 0.0051112 -0.0481342
73 1 9.41928 8.75854 6.24895 0.00248091 0.00193162 0.00297237
74 2 9.58955 7.88096 6.6024 0.00211633 -0.00933845 -0.00486845
75 2 9.91098 9.3469 6.8409 -0.00369431 -0.0171528 -0.00215441
76 1 12.1606 4.91879 9.70347 -0.00153274 -0.00142279 0.00152141
77 2 11.5133 5.59349 9.23006 0.016905 0.00982672 0.01614
78 2 4.11226 5.52191 10.1021 0.000575372 0.00128079 0.00216143
79 1 11.9207 8.69635 10.1232 -0.0050261 0.0109492 -0.000954458
80 2 12.202 9.34957 10.7884 -0.00369968 0.00198336 0.00456786
81 2 5.62048 10.6549 9.19891 0.0124302 -0.0347123 -0.0208397
82 1 7.42303 5.86125 11.8173 0.00326222 -0.00217719 -0.00136005
83 2 7.31792 4.97748 2.44028 -0.0245427 0.0314802 -0.0126149
84 2 6.50776 6.02533 11.4281 0.0158634 0.0233504 -0.0122934
85 1 10.1053 13.814 11.599 -0.00182813 -0.0038096 0.00353084
86 2 9.65955 4.82628 11.4247 -0.0169952 -0.0109077 -0.0046304
87 2 11.5278 4.40008 10.3156 -0.00474444 -0.0124564 -0.0349929
88 1 7.71315 12.7845 6.5755 -0.00143506 -0.00188307 -0.00272269
89 2 6.31235 12.6376 7.53526 -0.00628029 -0.00890476 -0.0170773
90 2 7.76636 13.7937 6.24122 0.0176017 -0.0200573 -0.0207863
91 1 5.35073 6.50232 5.81399 -0.00212815 -0.000585692 0.00876347
92 2 4.35955 8.05909 6.34551 0.00781601 -0.0035092 -0.0189022
93 2 5.00673 5.87374 6.45038 -0.0036522 0.0326099 0.0131343
94 1 3.79698 4.69521 7.50061 0.00303918 -0.00157245 -0.00536715
95 2 3.05435 4.55206 8.19373 0.0202827 -0.0046792 0.0411136
96 2 4.86831 6.25235 4.88697 -0.00119845 0.011985 -0.00969696
ITEM: TIMESTEP
2
ITEM: NUMBER OF ATOMS
96
ITEM: BOX BOUNDS pp pp pp
2.9236100000000000e+00 1.2773600000000000e+01
4.0306300000000004e+00 1.3880599999999999e+01
2.1372399999999998e+00 1.1987200000000000e+01
ITEM: ATOMS id type x y z vx vy vz
1 1 7.23297 13.384 3.54873 0.00402457 0.00167175 0.00480141
2 2 6.58728 12.6639 3.43787 -0.000974357 0.00927237 0.017008
3 2 9.45821 13.1606 11.3463 -0.011488 -0.000533731 0.0149127
4 1 12.5801 9.80692 2.76088 -0.000991018 0.00429014 -0.00369878
5 2 11.859 10.3945 2.38364 0.0211737 0.00249879 0.010051
6 2 12.2289 8.94896 3.15346 0.021635 0.0110615 -0.00718602
7 1 12.1054 7.51527 4.29188 0.00147297 -0.00446757 -0.000204405
8 2 11.0967 7.35809 4.26491 -0.0180676 0.0026322 0.00251187
9 2 7.72282 8.41523 7.10397 -0.00475712 -0.0226581 -0.000632052
10 1 7.00782 8.44481 7.71024 -6.53183e-05 0.0023868 -0.00125586
11 2 6.25729 8.15673 7.21461 -0.00822193 -0.00381669 -0.0155757
12 2 6.69184 9.50563 9.13634 -0.0132621 0.014565 -0.00221631
13 1 7.00496 8.58511 2.62827 0.0048694 0.010569 -0.00147027
14 2 6.64321 9.00658 11.6824 0.0205366 0.00631501 -0.0187778
15 2 7.33907 7.69637 2.43704 0.00757962 0.0410545 0.00647789
16 1 9.69845 7.18786 10.9644 0.00141579 -0.00625228 -0.00199199
17 2 10.1691 7.15855 11.8283 -0.0153994 0.00648052 0.0178855
18 2 8.81808 6.74981 11.1488 0.00759433 -0.00717286 0.00506182
19 1 4.90969 5.77176 10.6577 -0.00188049 -0.000336106 -0.00140372
20 2 4.5119 5.94603 11.5327 -0.00463737 -0.00352564 0.00245795
21 2 11.1602 8.22069 10.4758 -0.016544 0.00985497 0.0114515
22 1 10.0199 10.237 11.7144 0.00246555 -0.00222037 -0.0019952
23 2 9.68116 10.4622 2.73706 -0.00381148 -0.0144029 -0.00274186
24 2 9.63775 9.34743 11.5857 -0.0192993 0.00632519 0.0293494
25 1 3.57484 8.68127 6.32392 0.0073957 0.0058269 -0.00138993
26 2 3.8731 9.46918 5.85886 -0.00788728 0.00525125 0.010895
27 2 3.24476 6.23656 3.9113 -0.00827925 0.00532262 0.00859597
28 1 9.44106 7.21261 4.10077 -1.88047e-05 -0.00245585 0.00323503
29 2 9.14983 6.52068 4.75615 0.00604664 -0.0164939 -0.0104424
30 2 9.03037 7.97481 4.51242 -0.0116539 -0.00966486 -0.00689955
31 1 4.1753 11.217 5.66434 -0.00494968 -0.000579114 0.000747742
32 2 3.54544 12.0242 5.5819 -0.0263822 -0.0049571 0.0147764
33 2 4.6992 11.3104 4.83919 0.00396988 -0.0144062 0.0185416
34 1 7.56254 5.14871 8.9669 -0.00104844 -0.00317999 -0.00342256
35 2 7.64391 4.20563 9.14157 0.000447074 -0.00634224 -0.016416
36 2 6.95578 5.45203 9.60241 -0.00793093 -0.00202779 0.0154269
37 1 8.14425 11.8154 10.5569 -0.000740481 0.00496452 0.00140784
38 2 9.19391 12.0801 9.07146 0.0125768 -4.89385e-06 0.0128546
39 2 8.64432 11.0992 11.0638 0.00162769 -0.0252309 -0.0337179
40 1 3.06232 13.5064 5.19711 -0.00741149 2.78696e-05 0.00781794
41 2 3.73526 4.61276 4.06115 0.0186872 -0.0101198 -0.0176023
42 2 11.9422 13.4864 5.09052 -0.00882564 -0.0215046 -0.00560211
43 1 3.96563 5.55832 3.69582 0.00192595 -0.00274238 -0.00110578
44 2 12.3756 7.89541 5.15305 -0.0086275 -0.00370476 0.0334505
45 2 8.0384 12.8909 3.56029 0.0191945 -0.0355577 -0.0167518
46 1 9.74233 12.3267 8.31764 0.00157088 0.00610966 -0.00038106
47 2 8.53541 12.6292 7.07523 -0.0106852 -0.027304 0.0117049
48 2 10.3577 11.5818 8.16858 0.014738 -0.00438846 0.00104647
49 1 10.1592 6.50249 8.18296 0.00132959 0.00696336 0.00206538
50 2 9.37407 5.84626 8.06342 -0.0171699 0.00788241 -0.04161
51 2 10.0296 6.86184 9.03055 0.0111492 -0.00638688 -0.0215567
52 1 9.08742 10.9502 4.46426 -0.00902897 0.00505697 0.00799203
53 2 9.26666 10.2411 4.99777 -0.0237749 0.0110841 -0.00062105
54 2 8.7133 11.5955 5.08906 -0.00831442 -0.0133563 0.00543942
55 1 5.12511 11.1365 3.25332 0.00548133 -0.00140984 0.000517426
56 2 5.72409 10.354 3.28077 -0.00860638 -0.0353691 -0.0122886
57 2 4.2706 10.7087 2.99683 -0.0265188 -0.0101238 0.0132534
58 1 6.2472 10.1415 9.77165 0.00369725 0.00177901 0.00355316
59 2 4.50911 13.6809 7.78049 0.00651066 0.0278505 0.00899012
60 2 7.31685 11.3624 10.2418 0.00369261 0.00334251 0.00292922
61 1 7.82917 5.53841 6.40946 0.0035671 -0.00351374 -0.0068101
62 2 7.71017 5.67277 7.40974 0.00936942 -0.0031334 0.00511745
63 2 6.90999 5.7982 6.11707 -0.0169349 0.00676752 0.013219
64 1 5.3253 12.3976 7.90056 -0.00383937 -0.00352395 -0.000329693
65 2 4.92958 11.8878 7.15869 -0.0081072 -0.0459672 -0.00261708
66 2 3.26805 4.2577 6.37452 -0.00817555 0.0141698 -0.0190341
67 1 11.3751 9.9649 7.75611 -0.000547672 -0.00526221 -0.00227718
68 2 11.9624 9.54489 7.09277 -0.0388789 -0.0236124 -0.00530246
69 2 11.6862 9.52452 8.57679 -0.0280195 -0.00276914 -0.00402436
70 1 10.2917 4.23563 4.56967 0.00476248 -0.00256434 -0.00366253
71 2 10.2473 4.18768 3.59165 -0.00159495 -0.00870982 -0.0251916
72 2 9.4288 4.55989 4.8406 0.0143388 0.00479951 -0.0483077
73 1 9.42049 8.75949 6.25043 0.00233215 0.00184046 0.00292599
74 2 9.59087 7.87581 6.60035 0.00307594 -0.0109666 -0.00347206
75 2 9.90963 9.33866 6.84033 -0.00148265 -0.0153858 0.000188013
76 1 12.1597 4.91813 9.70421 -0.00224331 -0.0012277 0.00144229
77 2 11.5233 5.59671 9.23926 0.0225437 0.00337363 0.0203661
78 2 4.11365 5.52282 10.104 0.00486977 0.0023285 0.00524462
79 1 11.9183 8.70184 10.1226 -0.00473426 0.010993 -0.00115326
80 2 12.1999 9.35023 10.7911 -0.00467334 0.000744577 0.00585487
81 2 5.62749 10.6372 9.18894 0.0150523 -0.0356118 -0.0189481
82 1 7.42457 5.8601 11.8166 0.00293009 -0.00234995 -0.00139235
83 2 7.30596 4.99394 2.43392 -0.0233183 0.0332587 -0.0122834
84 2 6.51654 6.03682 11.4221 0.0190262 0.0226941 -0.0116992
85 1 10.1044 13.8122 11.6007 -0.00174591 -0.00346326 0.00351794
86 2 9.65116 4.81995 11.4225 -0.0164044 -0.0142883 -0.00414085
87 2 11.5266 4.39481 10.297 -0.000582644 -0.00894669 -0.0390114
88 1 7.71238 12.7836 6.5741 -0.00164509 -0.00172133 -0.00288327
89 2 6.30796 12.633 7.527 -0.0115285 -0.00942042 -0.0157931
90 2 7.77485 13.7827 6.23144 0.0164602 -0.0234821 -0.0183086
91 1 5.34963 6.50204 5.81827 -0.00226142 -0.000487093 0.0083111
92 2 4.36275 8.05746 6.33582 0.00489459 -0.00287916 -0.019859
93 2 5.00453 5.89004 6.45695 -0.00554313 0.0320197 0.0134274
94 1 3.79855 4.69437 7.498 0.00322211 -0.00178653 -0.00499921
95 2 3.06439 4.55003 8.21427 0.0199438 -0.00329683 0.0404737
96 2 4.86848 6.25821 4.88355 0.00183783 0.0112505 -0.00363226
ITEM: TIMESTEP
3
ITEM: NUMBER OF ATOMS
96
ITEM: BOX BOUNDS pp pp pp
2.9236100000000000e+00 1.2773600000000000e+01
4.0306300000000004e+00 1.3880599999999999e+01
2.1372399999999998e+00 1.1987200000000000e+01
ITEM: ATOMS id type x y z vx vy vz
1 1 7.23494 13.3848 3.55112 0.00393752 0.00154075 0.00474722
2 2 6.58688 12.6692 3.44637 -0.000721406 0.011513 0.016982
3 2 9.45207 13.1601 11.3535 -0.012915 -0.00185466 0.0139499
4 1 12.5795 9.80908 2.759 -0.00099024 0.00434401 -0.00380392
5 2 11.8697 10.3941 2.38965 0.0208756 -0.00367971 0.013609
6 2 12.2397 8.95585 3.14943 0.0210256 0.0158359 -0.0086214
7 1 12.1062 7.51306 4.29168 0.00136029 -0.00433771 -0.000492398
8 2 11.0876 7.35941 4.26673 -0.0177106 0.00270891 0.00473066
9 2 7.72159 8.404 7.10273 -0.000186936 -0.0222915 -0.00420105
10 1 7.00774 8.44603 7.7097 -0.000284618 0.0024441 -0.000950008
11 2 6.25258 8.15435 7.20631 -0.0100626 -0.0054746 -0.0171337
12 2 6.68484 9.51341 9.13571 -0.0141077 0.0159212 -0.000280983
13 1 7.00737 8.59045 2.62756 0.00473401 0.0108727 -0.00135636
14 2 6.65394 9.00887 11.6731 0.0224115 0.00288827 -0.0186023
15 2 7.34256 7.71733 2.43981 0.00683665 0.0416762 0.00442808
16 1 9.69916 7.18472 10.9634 0.00141951 -0.00630699 -0.00177602
17 2 10.1606 7.16165 11.8369 -0.0187774 0.0059916 0.0160328
18 2 8.82274 6.74663 11.1512 0.0107963 -0.00559415 0.00461244
19 1 4.90867 5.7716 10.6569 -0.00216055 -0.000307394 -0.00142959
20 2 4.50973 5.94389 11.5336 -0.0039445 -0.00504416 0.00084656
21 2 11.1516 8.22568 10.4817 -0.0174817 0.0103274 0.0117482
22 1 10.0211 10.2358 11.7134 0.00232211 -0.00233513 -0.00207936
23 2 9.67924 10.4554 2.73648 -0.00368636 -0.0123355 0.000360373
24 2 9.62845 9.35053 11.6001 -0.0177841 0.00588296 0.0278363
25 1 3.57857 8.68407 6.32325 0.00748244 0.00532055 -0.00124459
26 2 3.86946 9.4728 5.86388 -0.00652088 0.00944815 0.00897908
27 2 3.2405 6.23804 3.91566 -0.00856613 0.000341762 0.00880305
28 1 9.44102 7.21129 4.10243 -0.000131744 -0.00282991 0.00337297
29 2 9.15337 6.51278 4.75005 0.00800857 -0.0150488 -0.0137784
30 2 9.02465 7.97083 4.50886 -0.0113242 -0.00623508 -0.0071374
31 1 4.1728 11.2168 5.66479 -0.00505621 -0.000482237 0.00109652
32 2 3.5314 12.0223 5.5897 -0.0292725 -0.00311652 0.0160826
33 2 4.70247 11.3027 4.84743 0.00901936 -0.0159905 0.0141137
34 1 7.56209 5.14708 8.9652 -0.000788067 -0.00330465 -0.00336735
35 2 7.64401 4.20236 9.13345 -6.84842e-05 -0.0066398 -0.0160715
36 2 6.95073 5.45126 9.61117 -0.0116816 -0.00140984 0.0189873
37 1 8.14392 11.8179 10.5577 -0.000544093 0.00488528 0.00149664
38 2 9.19971 12.0798 9.07882 0.0107778 -0.000842525 0.0162924
39 2 8.64534 11.0873 11.0466 0.00257808 -0.0222707 -0.035274
40 1 3.05859 13.5065 5.20115 -0.00749322 0.000221089 0.00829763
41 2 3.74389 4.60866 4.05286 0.0157657 -0.00601166 -0.0155551
42 2 11.9385 13.4762 5.08785 -0.00593141 -0.0195169 -0.00494745
43 1 3.96667 5.55697 3.69525 0.0022432 -0.00265273 -0.00115549
44 2 12.3714 7.89382 5.1706 -0.008512 -0.00308639 0.0356375
45 2 8.04855 12.8729 3.55201 0.0201748 -0.0356878 -0.016374
46 1 9.74315 12.3298 8.3174 0.00172323 0.00611663 -0.00057115
47 2 8.53057 12.6154 7.08176 -0.00876174 -0.0276903 0.0143172
48 2 10.365 11.5795 8.16906 0.0139514 -0.00397062 0.000948419
49 1 10.1598 6.50583 8.18389 0.00100929 0.00636279 0.00155759
50 2 9.36736 5.85193 8.04305 -0.00935091 0.0150606 -0.0394934
51 2 10.0348 6.85918 9.02107 0.00921354 -0.00397957 -0.0153607
52 1 9.08285 10.9529 4.46818 -0.00922621 0.00573941 0.0076524
53 2 9.25541 10.2442 4.99883 -0.0211075 0.00079888 0.00503071
54 2 8.70903 11.589 5.09154 -0.00907298 -0.0119233 0.0048238
55 1 5.12789 11.1357 3.25355 0.00561903 -0.00174425 0.000382824
56 2 5.71987 10.3368 3.27455 -0.0085832 -0.0327073 -0.0126114
57 2 4.25721 10.704 3.00339 -0.0260992 -0.00800162 0.0132758
58 1 6.24902 10.1424 9.77338 0.00358703 0.00164721 0.00335396
59 2 4.51221 13.695 7.7842 0.00594835 0.028581 0.00551808
60 2 7.31827 11.3639 10.243 0.0018135 0.00310307 0.00189268
61 1 7.83093 5.53669 6.40604 0.00339501 -0.00336103 -0.00684239
62 2 7.71567 5.67094 7.41194 0.0126868 -0.00429886 0.00321437
63 2 6.90149 5.80166 6.12236 -0.0164472 0.00685764 0.00802014
64 1 5.32351 12.3958 7.90037 -0.00333544 -0.00336182 -0.000496818
65 2 4.92506 11.8645 7.15692 -0.00960813 -0.0465137 -0.00373008
66 2 3.26343 4.26313 6.36236 -0.010527 0.00732131 -0.0296541
67 1 11.3749 9.96227 7.75495 -0.000495722 -0.00522552 -0.0023809
68 2 11.9429 9.53351 7.08966 -0.0387842 -0.0221892 -0.00729758
69 2 11.6717 9.52311 8.57585 -0.0294588 -0.00313084 0.000503863
70 1 10.2941 4.23434 4.56784 0.00476619 -0.00260055 -0.00373274
71 2 10.2465 4.18325 3.57912 -0.00118841 -0.00910071 -0.0242863
72 2 9.43591 4.56227 4.81654 0.013489 0.00497033 -0.0473782
73 1 9.42162 8.76038 6.25188 0.00215715 0.00165386 0.00285223
74 2 9.59262 7.86999 6.59893 0.00385786 -0.0119817 -0.00237859
75 2 9.90949 9.33151 6.84109 0.00111059 -0.0128906 0.00312139
76 1 12.1584 4.91756 9.70491 -0.00282875 -0.00103904 0.0013413
77 2 11.5359 5.59686 9.25043 0.0272137 -0.00219323 0.0238797
78 2 4.11713 5.52424 10.1073 0.00880959 0.0032568 0.00797418
79 1 11.916 8.70734 10.122 -0.00451122 0.0109892 -0.00130664
80 2 12.1973 9.35031 10.7943 -0.00553622 -0.000353156 0.00695486
81 2 5.63554 10.6193 9.17996 0.0165103 -0.0351774 -0.0169436
82 1 7.42596 5.8589 11.8159 0.00263688 -0.00239696 -0.00148882
83 2 7.2946 5.01074 2.428 -0.022204 0.0328119 -0.0107656
84 2 6.52679 6.04802 11.4164 0.0216478 0.0222257 -0.0112976
85 1 10.1035 13.8105 11.6025 -0.00169822 -0.00312437 0.00349659
86 2 9.64315 4.81199 11.4205 -0.0155609 -0.0173398 -0.00355352
87 2 11.5272 4.39113 10.2766 0.00265381 -0.00626254 -0.0419659
88 1 7.71151 12.7828 6.57262 -0.0018596 -0.00161691 -0.00303167
89 2 6.30083 12.6281 7.51947 -0.0171048 -0.00998692 -0.0141951
90 2 7.78282 13.7702 6.22292 0.0154965 -0.0260804 -0.0158259
91 1 5.34847 6.50184 5.8223 -0.00234472 -0.000307783 0.00778422
92 2 4.36445 8.05621 6.32565 0.00193846 -0.00201435 -0.0208154
93 2 5.00118 5.90576 6.46381 -0.00820797 0.0303452 0.014302
94 1 3.80021 4.69342 7.49561 0.00340165 -0.0019778 -0.00449702
95 2 3.0743 4.54877 8.2342 0.0197855 -0.00161371 0.0386566
96 2 4.87015 6.2636 4.88333 0.0047538 0.0101021 0.00289531
ITEM: TIMESTEP
4
ITEM: NUMBER OF ATOMS
96
ITEM: BOX BOUNDS pp pp pp
2.9236100000000000e+00 1.2773600000000000e+01
4.0306300000000004e+00 1.3880599999999999e+01
2.1372399999999998e+00 1.1987200000000000e+01
ITEM: ATOMS id type x y z vx vy vz
1 1 7.23691 13.3855 3.55348 0.00401024 0.00130201 0.00469705
2 2 6.58656 12.6755 3.45486 -0.000713727 0.0136352 0.0169358
3 2 9.44529 13.1588 11.3602 -0.0139517 -0.0032886 0.0131677
4 1 12.5791 9.81127 2.75707 -0.000826181 0.00441461 -0.00388881
5 2 11.8799 10.3908 2.39725 0.0188781 -0.0085322 0.0163305
6 2 12.25 8.9648 3.14484 0.0196676 0.0191106 -0.00933526
7 1 12.1068 7.51093 4.29139 0.00120333 -0.0041619 -0.000620681
8 2 11.079 7.3608 4.26964 -0.0159202 0.00291045 0.00683915
9 2 7.72263 8.39294 7.09977 0.00414367 -0.021894 -0.00733098
10 1 7.00753 8.44726 7.70929 -0.000560551 0.00245792 -0.000752123
11 2 6.24723 8.15126 7.19747 -0.0106874 -0.00661174 -0.0176741
12 2 6.67774 9.52155 9.13606 -0.0136323 0.0159579 0.0015909
13 1 7.00969 8.59598 2.62691 0.00454233 0.01131 -0.00123833
14 2 6.66562 9.00947 11.6638 0.0242521 -0.000381303 -0.0181391
15 2 7.34591 7.73805 2.44147 0.00700604 0.0401145 0.00205119
16 1 9.69987 7.18156 10.9626 0.00145969 -0.00635062 -0.00151207
17 2 10.1503 7.16454 11.8444 -0.0219022 0.00564593 0.0136992
18 2 8.82888 6.74422 11.1534 0.013361 -0.00420656 0.00383359
19 1 4.90753 5.77145 10.6562 -0.00239715 -0.000262243 -0.00141482
20 2 4.50795 5.94098 11.5336 -0.00310062 -0.00654977 -0.000812843
21 2 11.1428 8.23102 10.4875 -0.0175297 0.0112376 0.0114331
22 1 10.0222 10.2346 11.7123 0.00213174 -0.00246811 -0.00212122
23 2 9.67747 10.4498 2.73742 -0.00318692 -0.00966018 0.00323863
24 2 9.61996 9.35332 11.6136 -0.0160748 0.00514975 0.025668
25 1 3.58232 8.68659 6.32267 0.00752583 0.00476315 -0.00109126
26 2 3.86658 9.47863 5.86784 -0.00491423 0.0139416 0.00677376
27 2 3.2362 6.2369 3.92011 -0.00853631 -0.00501004 0.00895565
28 1 9.44093 7.20978 4.10414 -0.000218275 -0.00319905 0.00345701
29 2 9.15784 6.50563 4.74238 0.00969624 -0.013574 -0.0166144
30 2 9.01905 7.96858 4.50529 -0.0111262 -0.00287524 -0.00693531
31 1 4.17024 11.2165 5.66543 -0.00519157 -0.000383437 0.00150625
32 2 3.51616 12.0211 5.59798 -0.0310657 -0.00176216 0.0166734
33 2 4.70822 11.2944 4.85331 0.013685 -0.0168234 0.00933937
34 1 7.56175 5.1454 8.96354 -0.000607927 -0.00339381 -0.00323362
35 2 7.64384 4.19899 9.1255 -0.000642777 -0.00669993 -0.0157175
36 2 6.9441 5.45062 9.6214 -0.0141074 -0.00153407 0.0211669
37 1 8.1437 11.8203 10.5584 -0.000334004 0.00476008 0.00158398
38 2 9.20469 12.0792 9.08775 0.00939807 -0.00135329 0.019031
39 2 8.6469 11.077 11.0286 0.00384283 -0.0189027 -0.0365687
40 1 3.05482 13.5066 5.20541 -0.00755703 0.0003914 0.00873262
41 2 3.75103 4.60675 4.0456 0.0127658 -0.0014526 -0.0135143
42 2 11.9363 13.4669 5.08557 -0.00325202 -0.0173169 -0.00408404
43 1 3.96787 5.55567 3.69466 0.00253894 -0.0025505 -0.00119081
44 2 12.3671 7.89232 5.18869 -0.00869612 -0.00330666 0.0355626
45 2 8.05857 12.8552 3.54392 0.0187981 -0.034195 -0.0159548
46 1 9.74405 12.3328 8.31707 0.00188791 0.00603729 -0.000723998
47 2 8.52665 12.6015 7.08955 -0.00705665 -0.0276942 0.0166432
48 2 10.3716 11.5778 8.16953 0.0123601 -0.00253742 0.000960069
49 1 10.1602 6.50885 8.18452 0.00069617 0.00572216 0.000894789
50 2 9.36472 5.86133 8.02393 -0.00102246 0.0225673 -0.0366494
51 2 10.0388 6.85786 9.01519 0.00671404 -0.00118569 -0.00752579
52 1 9.07819 10.9559 4.47192 -0.00939833 0.00638153 0.00727957
53 2 9.24556 10.2419 5.0028 -0.018339 -0.00985603 0.0106115
54 2 8.70423 11.5836 5.09388 -0.0103339 -0.00944556 0.00482941
55 1 5.13073 11.1347 3.25371 0.00566729 -0.00222813 0.000231951
56 2 5.7155 10.3213 3.26816 -0.00909469 -0.0287747 -0.01292
57 2 4.24451 10.7007 3.0101 -0.0238122 -0.0047478 0.0137933
58 1 6.25079 10.1431 9.77501 0.0034678 0.00151109 0.00317278
59 2 4.51506 13.7095 7.78601 0.00544913 0.0289701 0.00148204
60 2 7.31866 11.3655 10.2437 -0.000344104 0.00327129 0.000657965
61 1 7.83257 5.53505 6.40262 0.00313296 -0.0031801 -0.00683438
62 2 7.72286 5.66847 7.41295 0.0159296 -0.00568229 0.0004306
63 2 6.89355 5.80506 6.1251 -0.014704 0.00653206 0.00310822
64 1 5.32196 12.3942 7.90006 -0.00288463 -0.00327283 -0.000775737
65 2 4.91997 11.8413 7.15496 -0.0104181 -0.0456766 -0.0033547
66 2 3.25752 4.26502 6.34487 -0.013295 8.14958e-05 -0.0403006
67 1 11.3746 9.95968 7.75373 -0.000521014 -0.00511458 -0.00248966
68 2 11.9236 9.5227 7.08548 -0.0378855 -0.0213447 -0.00946616
69 2 11.6567 9.52139 8.57729 -0.0302937 -0.00395906 0.00531533
70 1 10.2965 4.23303 4.56594 0.0047972 -0.00265695 -0.00394737
71 2 10.2461 4.17858 3.56736 -6.19673e-05 -0.00966818 -0.0222062
72 2 9.44229 4.56486 4.79322 0.0114686 0.00561564 -0.0453963
73 1 9.42265 8.76115 6.25328 0.00196722 0.00138328 0.00276681
74 2 9.59472 7.86383 6.59797 0.00445038 -0.0122865 -0.00162031
75 2 9.91074 9.32577 6.84345 0.00392133 -0.00990396 0.00644226
76 1 12.1568 4.91709 9.70555 -0.00325061 -0.000868238 0.00122541
77 2 11.5505 5.59451 9.26314 0.0305741 -0.00642196 0.0264296
78 2 4.12245 5.52608 10.1119 0.0120856 0.00396573 0.0101009
79 1 11.9138 8.71283 10.1213 -0.00436129 0.0109374 -0.00141323