ITEM: TIMESTEP
0
ITEM: NUMBER OF ATOMS
96
ITEM: BOX BOUNDS pp pp pp
2.9236100000000000e+00 1.2773600000000000e+01
4.0306300000000004e+00 1.3880599999999999e+01
2.1372399999999998e+00 1.1987200000000000e+01
ITEM: ATOMS id type x y z vx vy vz
1 1 7.22357 13.3809 3.53886 -0.0056636 -0.00113337 -0.00510135
2 2 6.59098 12.6538 3.40369 0.00286682 -0.00159205 -0.0172574
3 2 9.47443 13.1586 11.312 0.00492339 -0.00123675 -0.019296
4 1 12.5811 9.79846 2.76773 -0.000159927 -0.0041973 0.00312001
5 2 11.8242 10.3601 2.38124 -0.0116037 -0.0317614 0.00794173
6 2 12.1879 8.95174 3.15927 -0.0178293 0.0140248 -0.00148347
7 1 12.1023 7.52441 4.29023 -0.00150121 0.00456525 -0.00209793
8 2 11.1251 7.35228 4.26922 0.00733761 -0.00342002 0.00698572
9 2 7.74711 8.46203 7.09208 0.0162973 0.0240855 -0.0106046
10 1 7.00763 8.44048 7.71432 -7.58176e-06 -0.00189598 0.00280041
11 2 6.26099 8.15526 7.23424 -0.00506226 -0.00569796 0.00286995
12 2 6.7076 9.489 9.14728 0.00047902 -0.000326965 0.00747786
13 1 6.99506 8.56428 2.63168 -0.00489185 -0.0105813 0.00197224
14 2 6.60878 8.98078 11.7176 -0.0146405 -0.018676 0.0147458
15 2 7.31589 7.62982 2.41865 -0.0169833 -0.0215075 -0.0107311
16 1 9.69546 7.20018 10.9687 -0.00160432 0.00611014 0.00215193
17 2 10.1869 7.14276 11.7907 0.00327468 -0.00964853 -0.0167733
18 2 8.81684 6.77027 11.1391 0.00557826 0.012661 -0.00372796
19 1 4.91229 5.77247 10.6601 0.000792901 0.000364528 0.000980681
20 2 4.52224 5.94741 11.5236 0.00482971 -0.00180932 -0.00512637
21 2 11.1842 8.20007 10.4575 0.00584616 -0.0115736 -0.00583225
22 1 10.0146 10.2411 11.7179 -0.00267665 0.00200316 0.00149419
23 2 9.68739 10.4938 2.75385 0.00195697 0.0146608 0.0126589
24 2 9.68087 9.33575 11.5262 0.0231127 -0.00405895 -0.0278416
25 1 3.56063 8.66823 6.32709 -0.00675011 -0.00687645 0.0016718
26 2 3.89152 9.47045 5.83335 0.00905925 0.00369138 -0.0124514
27 2 3.25686 6.21169 3.89541 0.0021475 -0.0160891 -0.00712878
28 1 9.44049 7.21625 4.09512 -0.000624276 0.00135838 -0.00235451
29 2 9.14622 6.55764 4.76251 0.00216305 0.0190885 -0.00358268
30 2 9.05659 8.00589 4.52172 0.0153501 0.0198362 0.000893874
31 1 4.18505 11.2186 5.66361 0.00491564 0.00106439 -0.000253098
32 2 3.58259 12.0413 5.56152 0.0106015 0.0105275 -0.0045558
33 2 4.71002 11.3286 4.79135 0.0127731 0.00262884 -0.0250298
34 1 7.56602 5.15438 8.97367 0.00244926 0.00245516 0.00334875
35 2 7.64138 4.21619 9.17554 -0.00193908 0.00421992 0.0173724
36 2 6.95089 5.46214 9.5915 -0.0132925 0.00860301 0.00484151
37 1 8.14633 11.8055 10.5544 0.00123933 -0.00476887 -0.00125254
38 2 9.16062 12.0754 9.06141 -0.0201659 -0.00483491 0.00233746
39 2 8.64288 11.1576 11.124 -0.000465659 0.0310967 0.0263279
40 1 3.07681 13.5072 5.18383 0.00712883 0.00085756 -0.00526358
41 2 3.68832 4.64554 4.10304 -0.0267112 0.0211028 0.0230221
42 2 11.9691 13.5358 5.10265 0.0158082 0.0270939 0.00576877
43 1 3.96318 5.56405 3.69764 -0.000490228 0.00290135 0.000625239
44 2 12.3955 7.91041 5.10776 0.011842 0.0127285 -0.00840267
45 2 8.01967 12.9511 3.59565 0.0051309 0.0215052 0.0189116
46 1 9.73954 12.3151 8.31757 -0.00136619 -0.00534035 -0.000400371
47 2 8.5638 12.6801 7.06273 0.0166246 0.0227304 -0.00112961
48 2 10.3307 11.5849 8.16527 -0.0102858 -0.00393921 -0.00251961
49 1 10.1555 6.48688 8.1782 -0.00222509 -0.00819967 -0.00207181
50 2 9.43136 5.85188 8.14937 0.0346351 0.0084476 0.0417478
51 2 10.0048 6.87974 9.08231 -0.0111934 0.00944426 0.0228511
52 1 9.10469 10.9425 4.44757 0.00831354 -0.00297824 -0.00835195
53 2 9.32112 10.1907 5.01529 0.0282674 -0.0314903 0.0124563
54 2 8.73068 11.6197 5.07175 0.0104342 0.00765708 -0.0130375
55 1 5.11526 11.1391 3.25193 -0.00417454 0.00174681 -0.000821588
56 2 5.74595 10.4252 3.30398 0.0150346 0.0315942 0.0108553
57 2 4.31241 10.7286 2.96635 0.0108623 0.00626725 -0.0188115
58 1 6.23942 10.1375 9.76383 -0.0040628 -0.00212094 -0.00415292
59 2 4.49216 13.6326 7.75325 -0.011626 -0.0177133 -0.0161689
60 2 7.30526 11.3522 10.234 -0.00610967 -0.00761765 -0.00372291
61 1 7.822 5.54587 6.42251 -0.00337202 0.00387886 0.00602144
62 2 7.70252 5.67639 7.39836 0.000176395 0.00151706 -0.00376991
63 2 6.93831 5.78779 6.07003 0.00923663 -0.00266049 -0.0327653
64 1 5.33511 12.4056 7.90132 0.00592326 0.00451162 0.000689174
65 2 4.9358 11.969 7.1498 -0.00275226 0.032439 -0.0145328
66 2 3.27784 4.20562 6.36964 0.00275013 -0.0360454 -0.0239856
67 1 11.377 9.97503 7.76037 0.00158216 0.00466163 0.00204727
68 2 12.0344 9.60138 7.09847 0.0307302 0.0339653 0.002091
69 2 11.7318 9.53226 8.59788 0.0156218 0.00639783 0.0141941
70 1 10.282 4.24076 4.57778 -0.00504697 0.00261076 0.00486367
71 2 10.2473 4.20464 3.6367 -0.00340026 0.0086402 0.0163282
72 2 9.40521 4.54779 4.93332 -0.00613045 -0.00838795 0.0414278
73 1 9.41534 8.75574 6.24453 -0.00269736 -0.00164341 -0.00282224
74 2 9.58897 7.89004 6.61353 0.00150076 0.00246374 0.0101563
75 2 9.91987 9.37369 6.84704 0.00710395 0.0167248 0.00453108
76 1 12.1611 4.92134 9.70109 -0.000887479 0.00194226 -0.00159881
77 2 11.5021 5.56344 9.21637 0.00176647 -0.029625 -0.00224851
78 2 4.12094 5.52232 10.1059 0.0114675 0.00162111 0.00669949
79 1 11.9291 8.68015 10.124 0.00619682 -0.0105832 0.000148306
80 2 12.2051 9.34344 10.7849 0.000329127 -0.00636777 -0.00013383
81 2 5.61042 10.7015 9.23356 -8.81842e-05 0.0259814 0.0245685
82 1 7.41734 5.86377 11.8195 -0.00430803 0.0010065 0.00162122
83 2 7.35738 4.94041 2.45673 0.0278127 -0.0151285 0.00785223
84 2 6.49204 5.98845 11.4482 -0.00502788 -0.0258798 0.0145431
85 1 10.1083 13.8204 11.5937 0.00222108 0.00468089 -0.00351254
86 2 9.68526 4.83492 11.4323 0.0164855 0.00104615 0.00513079
87 2 11.5458 4.42792 10.3569 0.0193731 0.0246408 0.0196177
88 1 7.71492 12.7878 6.57923 0.000995582 0.00256393 0.00228914
89 2 6.31181 12.6501 7.56258 -0.00566102 0.00810425 0.0185967
90 2 7.73698 13.8141 6.2776 -0.0217173 0.00638072 0.0273114
91 1 5.35352 6.50316 5.80016 0.00156104 0.000384316 -0.0094562
92 2 4.34197 8.06476 6.37172 -0.0149031 0.00332674 0.0160752
93 2 5.01042 5.82705 6.42991 0.00259446 -0.0277035 -0.014615
94 1 3.79285 4.69699 7.50909 -0.00246849 0.000725146 0.00573557
95 2 3.02307 4.56123 8.13379 -0.0212073 0.00699139 -0.0374259
96 2 4.87678 6.2341 4.91217 0.0096723 -0.0115872 0.0213774
ITEM: TIMESTEP
1
ITEM: NUMBER OF ATOMS
96
ITEM: BOX BOUNDS pp pp pp
2.9236100000000000e+00 1.2773600000000000e+01
4.0306300000000004e+00 1.3880599999999999e+01
2.1372399999999998e+00 1.1987200000000000e+01
ITEM: ATOMS id type x y z vx vy vz
1 1 7.2206 13.3804 3.53629 -0.00618418 -0.000832413 -0.00519539
2 2 6.59255 12.6533 3.39503 0.00347125 -0.000402749 -0.0173775
3 2 9.47656 13.1581 11.3021 0.00375281 -0.00038133 -0.0201848
4 1 12.5809 9.79637 2.76925 -0.000561584 -0.00417906 0.00295432
5 2 11.8192 10.3426 2.38628 -0.00853127 -0.0375968 0.0118817
6 2 12.1794 8.96017 3.15806 -0.0158739 0.018984 -0.00302083
7 1 12.1016 7.52668 4.28901 -0.00142446 0.00452528 -0.00277916
8 2 11.1277 7.35049 4.27333 0.00297849 -0.0036947 0.00949612
9 2 7.75534 8.47414 7.08648 0.0158482 0.0243067 -0.0112536
10 1 7.00766 8.43957 7.7158 0.000157345 -0.00175433 0.00307861
11 2 6.25768 8.1518 7.23477 -0.00772781 -0.00799832 -0.000598562
12 2 6.7068 9.48991 9.15109 -0.00363363 0.00382303 0.00733409
13 1 6.99263 8.55894 2.6327 -0.0048057 -0.0107888 0.00213321
14 2 6.60168 8.97084 11.7244 -0.013957 -0.0208189 0.0123161
15 2 7.30665 7.62081 2.41321 -0.0199561 -0.0144591 -0.0108859
16 1 9.69464 7.20324 10.9697 -0.00165114 0.00613588 0.00200074
17 2 10.188 7.13768 11.7829 0.00131161 -0.0106967 -0.0139697
18 2 8.82024 6.77681 11.1375 0.00760355 0.0132762 -0.00272743
19 1 4.91264 5.77265 10.6606 0.000629256 0.000372127 0.000831304
20 2 4.52452 5.94624 11.5212 0.00412776 -0.00281116 -0.00433281
21 2 11.1863 8.19408 10.4551 0.00248894 -0.0123443 -0.00399633
22 1 10.0133 10.2421 11.7186 -0.00267123 0.0020166 0.00138809
23 2 9.6882 10.5007 2.76051 0.00129551 0.0126016 0.0136059
24 2 9.69254 9.33408 11.5127 0.0234603 -0.00246848 -0.0256479
25 1 3.5573 8.66479 6.32792 -0.00656219 -0.00683962 0.00163421
26 2 3.89587 9.47236 5.8274 0.00809768 0.00345542 -0.0109566
27 2 3.25727 6.20361 3.89196 -0.000759804 -0.0155314 -0.00669636
28 1 9.44013 7.2169 4.094 -0.000793818 0.00126665 -0.00212826
29 2 9.14773 6.56708 4.76 0.00368905 0.0182953 -0.00608631
30 2 9.06462 8.01614 4.52155 0.0168827 0.0208189 -0.00173182
31 1 4.18752 11.2192 5.66347 0.00499192 0.00122376 -0.000329127
32 2 3.58699 12.0465 5.56 0.00736182 0.00976857 -0.00153117
33 2 4.71703 11.329 4.7792 0.0147072 -0.000815866 -0.0227333
34 1 7.56733 5.15556 8.97535 0.00273643 0.00226685 0.00342013
35 2 7.64034 4.2182 9.18425 -0.00222248 0.00392413 0.01742
36 2 6.943 5.46686 9.59507 -0.0177285 0.0100289 0.0088905
37 1 8.14696 11.8032 10.5538 0.00127092 -0.00459457 -0.00130728
38 2 9.15023 12.0727 9.06336 -0.0210468 -0.00596044 0.00505247
39 2 8.64263 11.1732 11.1367 -0.000549419 0.0308202 0.0245829
40 1 3.08037 13.5077 5.18139 0.00710697 0.00109101 -0.00446254
41 2 3.67477 4.65655 4.11463 -0.0270732 0.0228215 0.0229757
42 2 11.977 13.5496 5.10541 0.0150943 0.027893 0.00515317
43 1 3.96303 5.56549 3.69791 -0.000128713 0.00285588 0.000440185
44 2 12.4017 7.9175 5.10551 0.0127549 0.0155178 -0.000795312
45 2 8.0243 12.9606 3.60529 0.0130392 0.0164636 0.0196729
46 1 9.73884 12.3125 8.31733 -0.00145463 -0.00504561 -0.00051867
47 2 8.57225 12.6911 7.06274 0.0168645 0.020978 0.00101017
48 2 10.3261 11.582 8.16389 -0.00804915 -0.00768169 -0.00298326
49 1 10.1544 6.48278 8.17726 -0.00224694 -0.00809191 -0.00160193
50 2 9.44874 5.85616 8.16983 0.0336368 0.00743853 0.039723
51 2 9.99962 6.88432 9.09262 -0.00913896 0.00866522 0.0174717
52 1 9.10882 10.9411 4.44343 0.00822145 -0.00277972 -0.00815413
53 2 9.3351 10.1751 5.02145 0.0271857 -0.029674 0.0113497
54 2 8.73623 11.6227 5.06461 0.0118525 0.00408048 -0.0154727
55 1 5.11328 11.1401 3.25151 -0.00373519 0.00216759 -0.000883462
56 2 5.75412 10.4401 3.3093 0.0176962 0.027685 0.0103789
57 2 4.31626 10.731 2.95637 0.00446301 0.00282489 -0.0211776
58 1 6.23737 10.1364 9.76174 -0.00414056 -0.00213781 -0.00415337
59 2 4.4858 13.6249 7.74506 -0.0141102 -0.0126188 -0.0162904
60 2 7.30237 11.348 10.2323 -0.00513947 -0.00920239 -0.00291646
61 1 7.82036 5.54782 6.42543 -0.00317213 0.00392727 0.00562623
62 2 7.70292 5.67723 7.39693 0.00104191 0.00201563 -0.00177655
63 2 6.94219 5.78686 6.05268 0.00636083 -0.00100272 -0.0361667
64 1 5.33818 12.4079 7.90172 0.00633676 0.00472917 0.000922254
65 2 4.93368 11.984 7.14108 -0.00549323 0.0274799 -0.0202668
66 2 3.27906 4.18656 6.35498 0.00230282 -0.0397827 -0.0344589
67 1 11.3779 9.97729 7.76139 0.00200359 0.00437903 0.0020554
68 2 12.0489 9.61915 7.09961 0.0269559 0.0371051 0.00272257
69 2 11.7385 9.5359 8.60511 0.0111389 0.00826922 0.0142479
70 1 10.2794 4.24207 4.58035 -0.00516013 0.0026498 0.00545472
71 2 10.245 4.20902 3.64377 -0.00594598 0.00890239 0.0116931
72 2 9.40311 4.54322 4.95314 -0.00204793 -0.00993888 0.0375421
73 1 9.41399 8.75497 6.24315 -0.0026834 -0.00140245 -0.00264948
74 2 9.59005 7.89067 6.61907 0.00278384 0.000198216 0.0119453
75 2 9.92349 9.38164 6.8492 0.00709119 0.0146126 0.00372674
76 1 12.1605 4.92235 9.70029 -0.00162354 0.00206043 -0.00157249
77 2 11.5044 5.54718 9.21632 0.00710421 -0.0347691 0.00165945
78 2 4.12749 5.52331 10.1098 0.0143195 0.00222244 0.00875898
79 1 11.9323 8.6749 10.124 0.00662733 -0.0104128 -0.000156247
80 2 12.205 9.33985 10.7852 -0.000880399 -0.00802002 0.00131543
81 2 5.61154 10.7135 9.24597 0.00447464 0.0220126 0.0247351
82 1 7.41511 5.86414 11.8204 -0.00460835 0.000462725 0.00180347
83 2 7.37149 4.93471 2.46 0.0285227 -0.00735648 0.00507943
84 2 6.4904 5.9753 11.4556 -0.00176919 -0.0266632 0.015153
85 1 10.1094 13.8228 11.5919 0.00237927 0.00485504 -0.00348609
86 2 9.69329 4.83474 11.4348 0.0154152 -0.00144316 0.00487725
87 2 11.5567 4.4412 10.3654 0.0237849 0.0281334 0.0146569
88 1 7.7154 12.7891 6.58035 0.000953678 0.00280386 0.00219505
89 2 6.30827 12.6541 7.57185 -0.00809699 0.00814215 0.0182884
90 2 7.72575 13.816 6.2917 -0.0232058 0.00144165 0.0289253
91 1 5.35425 6.50331 5.79542 0.0013727 0.000176797 -0.00942775
92 2 4.3341 8.06625 6.37953 -0.0162812 0.00240288 0.0151632
93 2 5.01189 5.81398 6.42242 0.0035115 -0.0242157 -0.0152296
94 1 3.79167 4.69727 7.51195 -0.00226767 0.000353692 0.00565361
95 2 3.01245 4.56481 8.11563 -0.0210771 0.00719244 -0.0350647
96 2 4.88221 6.22849 4.92326 0.0118166 -0.0107069 0.0220263
ITEM: TIMESTEP
2
ITEM: NUMBER OF ATOMS
96
ITEM: BOX BOUNDS pp pp pp
2.9236100000000000e+00 1.2773600000000000e+01
4.0306300000000004e+00 1.3880599999999999e+01
2.1372399999999998e+00 1.1987200000000000e+01
ITEM: ATOMS id type x y z vx vy vz
1 1 7.21739 13.3801 3.53366 -0.00663621 -0.000524305 -0.0052888
2 2 6.59445 12.6534 3.38631 0.00416513 0.000427556 -0.0174991
3 2 9.47818 13.1582 11.2918 0.00295066 0.00103947 -0.0208812
4 1 12.5805 9.79428 2.77068 -0.000933251 -0.00415117 0.00278873
5 2 11.8157 10.3225 2.39312 -0.0059935 -0.0417666 0.0149623
6 2 12.172 8.97072 3.15625 -0.0137469 0.0222872 -0.00373725
7 1 12.1009 7.52894 4.28745 -0.00133039 0.00448141 -0.00341926
8 2 11.1281 7.34859 4.27872 -0.00129804 -0.00387656 0.0120628
9 2 7.76296 8.48634 7.08083 0.013865 0.0243853 -0.010815
10 1 7.00779 8.43873 7.7174 0.000362879 -0.001621 0.00326067
11 2 6.25326 8.14726 7.23364 -0.00935787 -0.00996378 -0.00366522
12 2 6.70397 9.49282 9.15461 -0.00752476 0.00755527 0.00631485
13 1 6.99025 8.55349 2.63381 -0.00470562 -0.0110186 0.0023124
14 2 6.59482 8.95996 11.7299 -0.0136681 -0.0224193 0.00937011
15 2 7.29593 7.61536 2.40776 -0.0227508 -0.00752382 -0.0107644
16 1 9.69381 7.20632 10.9707 -0.0016757 0.00619642 0.00178704
17 2 10.1882 7.13206 11.7767 -0.000122115 -0.0118186 -0.0102826
18 2 8.82444 6.78355 11.1364 0.00874388 0.0134645 -0.00153776
19 1 4.91292 5.77284 10.6609 0.000537062 0.000389483 0.000685326
20 2 4.52637 5.9446 11.5193 0.00316404 -0.00366705 -0.00293762
21 2 11.1867 8.18773 10.4535 -0.00061026 -0.0129562 -0.00229618
22 1 10.0119 10.2431 11.7193 -0.00265768 0.00205851 0.00130567
23 2 9.68869 10.5064 2.76746 0.000685237 0.00980219 0.0137722
24 2 9.70433 9.33328 11.5006 0.023553 -0.000598773 -0.0228823
25 1 3.55407 8.66139 6.32872 -0.0063845 -0.0066879 0.00155199
26 2 3.89962 9.47391 5.82239 0.00669424 0.00230394 -0.00876545
27 2 3.2561 6.19616 3.88871 -0.0040547 -0.013591 -0.00633734
28 1 9.4397 7.21752 4.09299 -0.000945488 0.00126291 -0.00193357
29 2 9.14991 6.57594 4.75642 0.00479587 0.0167652 -0.00778047
30 2 9.07347 8.02671 4.51999 0.0185637 0.0211065 -0.00462466
31 1 4.19004 11.2198 5.66328 0.00509003 0.00139523 -0.000450192
32 2 3.58995 12.0511 5.55999 0.00492717 0.00761556 0.00139654
33 2 4.72473 11.3278 4.76862 0.0155163 -0.00409434 -0.0189027
34 1 7.56876 5.15665 8.97709 0.00294316 0.00209638 0.00357653
35 2 7.63916 4.22011 9.19296 -0.00248378 0.00385244 0.0173569
36 2 6.93316 5.47217 9.60039 -0.0209425 0.010924 0.0116718
37 1 8.1476 11.8009 10.5531 0.00126578 -0.00437726 -0.0014083
38 2 9.13957 12.0694 9.06646 -0.0211471 -0.00691028 0.00689593
39 2 8.64233 11.1884 11.1486 -0.000650082 0.0298624 0.0230004
40 1 3.08392 13.5083 5.17937 0.00710307 0.00132164 -0.00361374
41 2 3.66125 4.66836 4.12602 -0.0265288 0.0244174 0.0221256
42 2 11.9842 13.5637 5.1078 0.0130094 0.0284169 0.00412664
43 1 3.96305 5.56691 3.69808 0.000209132 0.00277269 0.00024188
44 2 12.4083 7.92593 5.10696 0.0133518 0.0179444 0.00610151
45 2 8.03271 12.9676 3.61532 0.0198349 0.0117333 0.0204101
46 1 9.73809 12.3101 8.31705 -0.00159706 -0.00475598 -0.000584933
47 2 8.58066 12.7011 7.06374 0.0164384 0.0190261 0.00283352
48 2 10.3227 11.5772 8.16229 -0.0058543 -0.0115107 -0.00336677
49 1 10.1533 6.47879 8.1766 -0.00216612 -0.00780578 -0.00100697
50 2 9.465 5.85932 8.18909 0.0302382 0.00400064 0.0370743
51 2 9.99566 6.88841 9.09978 -0.00637285 0.00753577 0.0104836
52 1 9.11291 10.9397 4.43942 0.00817856 -0.00272308 -0.0078734
53 2 9.34831 10.161 5.02664 0.0252505 -0.0253722 0.00872207
54 2 8.74253 11.6238 5.05628 0.0133724 0.000151146 -0.0177331
55 1 5.11152 11.1413 3.25105 -0.00329265 0.0026466 -0.000965775
56 2 5.76365 10.4529 3.31436 0.0202474 0.0232216 0.00977419
57 2 4.31687 10.7314 2.94517 -0.0017345 -0.00106067 -0.0235147
58 1 6.23528 10.1354 9.75968 -0.00421486 -0.0021261 -0.00405873
59 2 4.47805 13.62 7.73696 -0.0171929 -0.00641208 -0.0158576
60 2 7.30012 11.343 10.2311 -0.00355439 -0.0108553 -0.00172265
61 1 7.81883 5.5498 6.42814 -0.00295705 0.00396559 0.00515912
62 2 7.70356 5.67841 7.39658 0.00118329 0.0028682 0.000419484
63 2 6.94467 5.78679 6.03386 0.00381449 0.000736655 -0.0385182
64 1 5.34145 12.4103 7.90224 0.00666141 0.00489407 0.00114395
65 2 4.93031 11.9965 7.12953 -0.0076498 0.0225511 -0.0255704
66 2 3.28014 4.16584 6.33518 0.00231232 -0.0426363 -0.0442595
67 1 11.379 9.97941 7.76243 0.00245287 0.00408095 0.00209122
68 2 12.0614 9.63849 7.10119 0.0228231 0.0401598 0.00383276
69 2 11.7429 9.54053 8.61213 0.0063763 0.0102825 0.0134095
70 1 10.2768 4.24341 4.58323 -0.00526543 0.00268747 0.00609879
71 2 10.2414 4.21354 3.64839 -0.00882571 0.0092395 0.00671868
72 2 9.40316 4.53785 4.97086 0.00227456 -0.0115243 0.0331346
73 1 9.41266 8.75434 6.24188 -0.00262783 -0.00112391 -0.00241058
74 2 9.59175 7.89024 6.62548 0.00400152 -0.00171304 0.0135544
75 2 9.92696 9.3883 6.85077 0.00655866 0.0116652 0.00222944
76 1 12.1595 4.9234 9.69952 -0.00224142 0.00213553 -0.00152391
77 2 11.5092 5.52867 9.21803 0.011262 -0.0384695 0.00463167
78 2 4.13526 5.52454 10.1147 0.016234 0.00252509 0.0100687
79 1 11.9357 8.66974 10.1238 0.00704441 -0.0102373 -0.000459196
80 2 12.2042 9.33542 10.7862 -0.00208837 -0.00974642 0.0026512
81 2 5.61489 10.7235 9.2583 0.00874291 0.0180433 0.0241739
82 1 7.41273 5.86423 11.8213 -0.00485387 -0.000118244 0.00201618
83 2 7.3859 4.93305 2.46181 0.0289941 0.000752174 0.00214759
84 2 6.49027 5.96179 11.4634 0.000876651 -0.0272989 0.0155336
85 1 10.1107 13.8253 11.5902 0.00254173 0.00495012 -0.0034484
86 2 9.70068 4.83348 11.4372 0.0138696 -0.0032356 0.00438658
87 2 11.5696 4.45605 10.3716 0.0274296 0.0308429 0.0104582
88 1 7.71587 12.7906 6.58143 0.000974507 0.00302403 0.00213825
89 2 6.30371 12.6582 7.58087 -0.00976125 0.00831705 0.0175999
90 2 7.71377 13.8155 6.30653 -0.0247043 -0.00322424 0.0301607
91 1 5.35489 6.50334 5.79073 0.00121317 -7.73092e-05 -0.00926772
92 2 4.32569 8.06716 6.38688 -0.0170226 0.0010038 0.0142685
93 2 5.01393 5.80283 6.41468 0.00484081 -0.0201375 -0.0155416
94 1 3.79058 4.69734 7.51474 -0.00205903 -6.82124e-05 0.00549303
95 2 3.00199 4.56842 8.09873 -0.0205501 0.00715219 -0.0325131
96 2 4.8886 6.22339 4.9342 0.0134203 -0.00958201 0.0207022
ITEM: TIMESTEP
3
ITEM: NUMBER OF ATOMS
96
ITEM: BOX BOUNDS pp pp pp
2.9236100000000000e+00 1.2773600000000000e+01
4.0306300000000004e+00 1.3880599999999999e+01
2.1372399999999998e+00 1.1987200000000000e+01
ITEM: ATOMS id type x y z vx vy vz
1 1 7.21397 13.3799 3.531 -0.00697091 -0.00023515 -0.0053743
2 2 6.59672 12.6538 3.37753 0.00493977 0.000893072 -0.0176066
3 2 9.47951 13.1592 11.2812 0.00254389 0.00297446 -0.0213571
4 1 12.58 9.79221 2.77204 -0.00124272 -0.00410983 0.00262731
5 2 11.8132 10.3008 2.40125 -0.00430836 -0.0438417 0.0169215
6 2 12.1657 8.98246 3.15432 -0.0115307 0.0235129 -0.00340479
7 1 12.1002 7.53117 4.28559 -0.00122977 0.00444281 -0.003982
8 2 11.1264 7.34662 4.2854 -0.00511104 -0.00390066 0.0146708
9 2 7.76921 8.49853 7.07566 0.0104927 0.0242839 -0.00935839
10 1 7.00802 8.43795 7.71906 0.000586947 -0.0015015 0.0033371
11 2 6.24832 8.14184 7.23111 -0.00973779 -0.0114959 -0.00615159
12 2 6.69928 9.49746 9.1574 -0.010959 0.0106167 0.0043353
13 1 6.98793 8.54792 2.63502 -0.0046056 -0.0112369 0.00250681
14 2 6.58801 8.94842 11.7338 -0.0137583 -0.0234459 0.00602651
15 2 7.28389 7.61329 2.40244 -0.0251722 -0.00117888 -0.010423
16 1 9.69297 7.20943 10.9715 -0.00166767 0.00629114 0.00152766
17 2 10.1879 7.12587 11.7726 -0.00109041 -0.0129855 -0.00592943
18 2 8.82898 6.79027 11.1359 0.00893314 0.0132251 -0.00021267
19 1 4.91317 5.77304 10.6612 0.000522105 0.000421221 0.000555795
20 2 4.52768 5.94257 11.5182 0.00200038 -0.00439595 -0.00103997
21 2 11.1857 8.18112 10.4528 -0.00320719 -0.013279 -0.000870248
22 1 10.0106 10.2442 11.7199 -0.002643 0.00212975 0.00124876
23 2 9.68888 10.5105 2.77429 0.0001652 0.00637457 0.0131789
24 2 9.7161 9.33348 11.4899 0.0233832 0.00142645 -0.0196611
25 1 3.55092 8.6581 6.32947 -0.00622588 -0.00643604 0.00143041
26 2 3.90256 9.47466 5.81864 0.00493684 0.000374566 -0.00599317
27 2 3.25321 6.19002 3.88562 -0.00754025 -0.0104031 -0.00612522
28 1 9.43919 7.21816 4.09207 -0.00106847 0.00134344 -0.00178492
29 2 9.15253 6.58384 4.75222 0.00542295 0.014508 -0.00854807
30 2 9.08319 8.03725 4.51693 0.0203087 0.0207567 -0.00764068
31 1 4.19261 11.2206 5.66302 0.00520384 0.00157326 -0.000590933
32 2 3.59192 12.0542 5.5614 0.00337242 0.00399899 0.00413609
33 2 4.73255 11.3249 4.7603 0.0152849 -0.00707389 -0.0138133
34 1 7.57027 5.15766 8.97893 0.00305451 0.00195028 0.00382974
35 2 7.63785 4.22205 9.20161 -0.00271581 0.00400259 0.0171701
36 2 6.92206 5.47778 9.60675 -0.02271 0.0111898 0.0129872
37 1 8.14823 11.7988 10.5524 0.00122864 -0.00412264 -0.00155454
38 2 9.12908 12.0658 9.07025 -0.0203745 -0.00764594 0.007774
39 2 8.64198 11.203 11.1597 -0.000712877 0.0282877 0.0216065
40 1 3.08747 13.509 5.17778 0.00710603 0.00154377 -0.00273697
41 2 3.64824 4.68096 4.13676 -0.0250197 0.0260121 0.0204221
42 2 11.99 13.578 5.10954 0.00956636 0.0286545 0.00262159
43 1 3.96324 5.56827 3.69815 0.000507644 0.00266029 3.90761e-05
44 2 12.415 7.93544 5.11161 0.0134665 0.0197461 0.0117684
45 2 8.04413 12.9723 3.6257 0.024737 0.00767895 0.0210169
46 1 9.73724 12.3077 8.31675 -0.00178445 -0.00449499 -0.000596891
47 2 8.58869 12.7101 7.06557 0.015358 0.0168979 0.00433612
48 2 10.3203 11.5705 8.16052 -0.00396207 -0.0150941 -0.00360809
49 1 10.1522 6.47498 8.17626 -0.00199242 -0.00736248 -0.000333369
50 2 9.47897 5.86016 8.2069 0.0247068 -0.00168431 0.0339726
51 2 9.99325 6.89186 9.10311 -0.0030332 0.00624707 0.00241268
52 1 9.117 10.9384 4.43556 0.00818519 -0.00279557 -0.00754168
53 2 9.36035 10.1497 5.03017 0.0226056 -0.0190876 0.00487412
54 2 8.7496 11.6228 5.04688 0.0148399 -0.00380474 -0.0196103
55 1 5.10999 11.1427 3.25054 -0.00286685 0.00313605 -0.00108076
56 2 5.77437 10.4633 3.31908 0.0223414 0.0186034 0.0089844
57 2 4.31452 10.7299 2.93285 -0.00708509 -0.00503721 -0.0255432
58 1 6.23315 10.1343 9.75768 -0.00428617 -0.00208962 -0.00385755
59 2 4.46861 13.6185 7.7292 -0.0208554 0.000794552 -0.0149616
60 2 7.29881 11.3372 10.2306 -0.00142777 -0.0125178 -0.000186839
61 1 7.8174 5.55179 6.43059 -0.00275069 0.00399713 0.00462722
62 2 7.7041 5.6801 7.39735 0.000628923 0.00403924 0.00254886
63 2 6.946 5.78759 6.01416 0.00190676 0.00247169 -0.0396484
64 1 5.34485 12.4128 7.90287 0.00688136 0.00499339 0.00131835
65 2 4.92603 12.0065 7.11551 -0.00896786 0.0179588 -0.0299245
66 2 3.28137 4.14393 6.31072 0.00282279 -0.0445343 -0.0530122
67 1 11.3803 9.98137 7.76348 0.00290517 0.00378927 0.00215313
68 2 12.0717 9.65931 7.10344 0.0185651 0.0429824 0.00529436
69 2 11.7449 9.54618 8.61852 0.00152594 0.012288 0.0118514
70 1 10.2742 4.24476 4.58645 -0.00534789 0.00271727 0.00675429
71 2 10.2362 4.21825 3.65049 -0.0119407 0.00963296 0.00183085
72 2 9.40539 4.5317 4.98628 0.00649954 -0.013026 0.0284244
73 1 9.41136 8.75385 6.24074 -0.00253416 -0.000832123 -0.00210763
74 2 9.59405 7.88896 6.63262 0.00508645 -0.00310664 0.0148722
75 2 9.93005 9.3933 6.85143 0.00557272 0.00805425 0.000149705
76 1 12.1582 4.92448 9.69877 -0.00269663 0.00215984 -0.00145659
77 2 11.5157 5.50871 9.22095 0.0138419 -0.0404016 0.00635697
78 2 4.14373 5.52584 10.1199 0.0170683 0.00248148 0.0105118
79 1 11.9394 8.66466 10.1235 0.00742878 -0.0100682 -0.00074915
80 2 12.2029 9.33011 10.7879 -0.00326071 -0.0115244 0.00382867
81 2 5.62028 10.7316 9.27014 0.0124509 0.0143782 0.0228063
82 1 7.41025 5.86403 11.8224 -0.00502795 -0.000711379 0.00224643
83 2 7.40049 4.93547 2.46215 0.0292431 0.00867972 -0.000676286
84 2 6.49128 5.948 11.4712 0.00267367 -0.0277386 0.0156012
85 1 10.112 13.8277 11.5885 0.00270396 0.00496185 -0.0033987
86 2 9.70716 4.83151 11.4392 0.0118354 -0.00420231 0.0036661
87 2 11.5841 4.47204 10.3759 0.0300534 0.0325469 0.00740406
88 1 7.71637 12.7922 6.58248 0.00105764 0.00320968 0.00212205
89 2 6.29851 12.6625 7.58945 -0.0107112 0.00860053 0.0165701
90 2 7.70105 13.8128 6.32186 -0.0261894 -0.00732479 0.0309844
91 1 5.35546 6.50323 5.78615 0.00109621 -0.000360601 -0.00898486
92 2 4.31707 8.06726 6.3938 -0.0171017 -0.00085884 0.0133851
93 2 5.01673 5.79384 6.40688 0.00642473 -0.0157074 -0.0153823
94 1 3.78961 4.6972 7.51744 -0.00184132 -0.000536987 0.00526891
95 2 2.9919 4.57196 8.08312 -0.0195635 0.00690248 -0.0299537
96 2 4.89563 6.21891 4.94396 0.0144138 -0.00831308 0.0173666
ITEM: TIMESTEP
4
ITEM: NUMBER OF ATOMS
96
ITEM: BOX BOUNDS pp pp pp
2.9236100000000000e+00 1.2773600000000000e+01
4.0306300000000004e+00 1.3880599999999999e+01
2.1372399999999998e+00 1.1987200000000000e+01
ITEM: ATOMS id type x y z vx vy vz
1 1 7.21041 13.3798 3.52829 -0.0071549 1.64904e-05 -0.00544431
2 2 6.59939 12.6543 3.36871 0.00576105 0.000995079 -0.0176882
3 2 9.48073 13.1612 11.2705 0.00252274 0.00533156 -0.021604
4 1 12.5793 9.79017 2.77331 -0.00146651 -0.00405336 0.00247342
5 2 11.8114 10.2787 2.41004 -0.00369154 -0.0435703 0.0175941
6 2 12.1605 8.99424 3.15284 -0.00927982 0.0224344 -0.00188549
7 1 12.0996 7.53338 4.28347 -0.00113417 0.00441592 -0.00443967
8 2 11.123 7.34468 4.29339 -0.00813636 -0.00371434 0.0172859
9 2 7.77345 8.51062 7.07147 0.00599064 0.0239813 -0.00703881
10 1 7.00837 8.43722 7.72074 0.000808369 -0.00139976 0.00330856
11 2 6.24352 8.13577 7.22749 -0.00879171 -0.0125426 -0.00794953
12 2 6.69301 9.50344 9.15895 -0.0137607 0.0128276 0.00136664
13 1 6.98565 8.54225 2.63632 -0.00452026 -0.0114106 0.00271006
14 2 6.58106 8.93652 11.7359 -0.014177 -0.0238986 0.00245709
15 2 7.27076 7.61418 2.39734 -0.0270521 0.00413787 -0.00992128
16 1 9.69214 7.21261 10.9722 -0.00161864 0.00641625 0.00124382
17 2 10.1871 7.11908 11.7708 -0.00171506 -0.0141551 -0.00119984
18 2 8.83338 6.79677 11.1362 0.00818729 0.0125946 0.00118617
19 1 4.91344 5.77326 10.6615 0.000583973 0.000471148 0.000455702
20 2 4.52837 5.9402 11.5182 0.000718161 -0.00502925 0.001206
21 2 11.1835 8.17445 10.4526 -0.00511174 -0.0132213 0.000169545
22 1 10.0093 10.2452 11.7205 -0.00263225 0.0022317 0.00121566
23 2 9.68885 10.5128 2.78063 -0.000244998 0.00244663 0.0118988
24 2 9.72771 9.33471 11.4809 0.022942 0.00345142 -0.0161119
25 1 3.54784 8.65495 6.33015 -0.00609296 -0.00610402 0.00127761
26 2 3.90455 9.47428 5.8164 0.00293544 -0.00216521 -0.00278774
27 2 3.24856 6.18576 3.88259 -0.0109736 -0.00618263 -0.00613514
28 1 9.43863 7.21886 4.09121 -0.00115361 0.00149783 -0.0016927
29 2 9.15533 6.59044 4.74788 0.00554648 0.0116052 -0.00835075
30 2 9.09378 8.04747 4.51235 0.0220248 0.0198638 -0.0106192
31 1 4.19525 11.2214 5.66269 0.00532887 0.00174995 -0.000725321
32 2 3.59332 12.0551 5.56412 0.00263744 -0.000963051 0.00661727
33 2 4.74001 11.3207 4.7548 0.0141906 -0.00966718 -0.0078608
34 1 7.57181 5.1586 8.98092 0.00306497 0.00183139 0.00418672
35 2 7.63644 4.22412 9.21013 -0.00290655 0.00433632 0.0168543
36 2 6.91045 5.48336 9.61338 -0.022963 0.0108101 0.0127981
37 1 8.14883 11.7968 10.5515 0.00116651 -0.00383733 -0.00174136
38 2 9.1192 12.0618 9.07424 -0.0187094 -0.00814832 0.00767521
39 2 8.64162 11.2167 11.1702 -0.000701175 0.0261896 0.0203988
40 1 3.09102 13.5098 5.17663 0.00709944 0.00174924 -0.00185975
41 2 3.63623 4.69437 4.14644 -0.0225586 0.0276326 0.0179017
42 2 11.9938 13.5923 5.11042 0.00503863 0.0286397 0.000706196
43 1 3.96356 5.56957 3.69812 0.000751448 0.00253424 -0.000160584
44 2 12.4217 7.94567 5.11873 0.0129871 0.0207258 0.0158318
45 2 8.05745 12.9752 3.63634 0.0272296 0.00453771 0.0213868
46 1 9.7363 12.3056 8.31645 -0.00200486 -0.00428281 -0.000556953
47 2 8.59602 12.718 7.06808 0.0136828 0.0146256 0.00553623
48 2 10.3187 11.5621 8.15868 -0.00259306 -0.0181306 -0.00365819
49 1 10.1513 6.47143 8.17626 -0.00175038 -0.00680163 0.000370843
50 2 9.4897 5.85763 8.22307 0.0175836 -0.00914736 0.0305987
51 2 9.99263 6.89465 9.10219 0.000703546 0.00499082 -0.00616796
52 1 9.1211 10.9369 4.43187 0.00823856 -0.00297804 -0.00719424
53 2 9.37091 10.1419 5.03151 0.0194407 -0.0114276 0.000184941
54 2 8.75737 11.62 5.03667 0.0161022 -0.00745643 -0.0209069
55 1 5.10866 11.1444 3.24997 -0.002474 0.00359151 -0.00123626
56 2 5.78599 10.4715 3.32334 0.023658 0.0142019 0.00795711
57 2 4.30979 10.7264 2.91963 -0.0110432 -0.00876739 -0.0269982
58 1 6.23099 10.1333 9.75582 -0.00435433 -0.00203461 -0.00354406
59 2 4.45719 13.6208 7.722 -0.0249977 0.0087549 -0.0136957
60 2 7.29869 11.3305 10.2309 0.00113477 -0.0141457 0.00162783
61 1 7.81608 5.55379 6.43276 -0.00257288 0.00402567 0.0040343
62 2 7.70419 5.68244 7.39913 -0.000559006 0.00547764 0.00435863
63 2 6.94658 5.78926 5.99421 0.000865716 0.00412961 -0.0394441
64 1 5.34833 12.4153 7.90356 0.00698684 0.00502044 0.00141439
65 2 4.92134 12.0144 7.09961 -0.00925985 0.0139551 -0.0328846
66 2 3.28297 4.1213 6.28217 0.00376146 -0.0454907 -0.0604738
67 1 11.3819 9.9832 7.76458 0.00333465 0.0035249 0.00223863
68 2 12.0799 9.68147 7.10649 0.0144343 0.0454454 0.00695082
69 2 11.7445 9.55282 8.62398 -0.00321009 0.0141386 0.00978881
70 1 10.2715 4.24613 4.58999 -0.0053927 0.00273342 0.00737891
71 2 10.2294 4.22318 3.65022 -0.015192 0.0100622 -0.00254474
72 2 9.40966 4.52483 4.99929 0.010287 -0.014333 0.023643
73 1 9.41012 8.75351 6.23977 -0.00240699 -0.000550558 -0.00174593
74 2 9.59684 7.88713 6.64035 0.00597332 -0.00386763 0.0158024
75 2 9.93253 9.39636 6.85092 0.00421216 0.00398678 -0.00238693
76 1 12.1568 4.92556 9.69806 -0.00295357 0.00212833 -0.00137474
77 2 11.523 5.48827 9.22439 0.0145244 -0.0403604 0.00659117
78 2 4.15233 5.52702 10.1252 0.01675 0.002066 0.0100327
79 1 11.9432 8.65967 10.1231 0.00776396 -0.0099158 -0.00101637
80 2 12.201 9.3239 10.79 -0.00435643 -0.0133189 0.00482148
81 2 5.62735 10.7379 9.2811 0.0153858 0.011288 0.0205912