ITEM: TIMESTEP
0
ITEM: NUMBER OF ATOMS
1151
ITEM: BOX BOUNDS pp pp pp
1.6762900000000000e-01 2.2849499999999999e+01
-2.0329000000000000e-01 2.2478600000000000e+01
8.2643499999999995e-02 2.2764500000000002e+01
ITEM: ATOMS id type x y z vx vy vz 
168 3 3.75053 0.663892 2.36297 0.00383422 -0.00221888 -0.00468857 
169 4 3.14532 -0.0589842 2.5285 -0.0168415 0.0160785 0.0350072 
170 4 3.19956 1.36183 2.00866 0.0215868 0.00828841 0.0221643 
210 3 4.07033 4.86691 1.93936 0.00522777 -0.000737964 -0.00199435 
211 4 4.93392 4.47274 1.8166 0.0333774 0.0107714 0.00536319 
212 4 3.51703 4.14476 2.23701 0.00479797 -0.0248673 -0.0208013 
416 4 3.22056 5.3716 3.3308 0.00503605 -0.00352285 -0.00864424 
628 4 1.69194 5.26776 5.65304 -0.00961772 0.0146692 -0.0279164 
714 3 5.80774 1.9273 3.97387 0.000177319 -0.000216816 0.00504264 
715 4 5.30046 2.12127 4.76208 0.0170896 -0.00156366 0.0212943 
716 4 5.41583 1.12564 3.62749 0.00554546 0.0108154 0.0587611 
879 3 3.00788 3.05241 3.70815 0.00451739 0.00226493 0.00732242 
880 4 2.09002 2.87725 3.91572 -0.0410107 -0.0247874 -0.00599183 
881 4 3.43785 2.20058 3.7839 -0.00481779 0.00867067 -0.00352564 
987 3 0.366779 2.40811 3.76676 -0.00402653 0.00197626 0.0022434 
989 4 0.196931 1.99358 2.92086 -0.00385417 -0.0101218 0.0228639 
1142 4 0.896373 1.51573 5.73959 0.0213546 -0.0168369 0.00325582 
96 3 5.91807 -0.0136917 0.349622 -0.00311414 0.00317553 0.00373131 
357 3 6.69376 3.74025 2.12792 -0.00861205 0.000338595 -0.00146351 
358 4 7.27645 4.35988 2.56698 0.00231148 -0.0141875 0.0124715 
359 4 6.55971 3.0417 2.76846 -0.0257156 0.0101334 -0.000470537 
400 4 8.50799 0.596073 1.8722 0.0132558 0.0172548 -0.00701828 
594 3 8.40237 5.34392 3.65296 0.00353952 0.0105182 0.00501193 
596 4 9.07078 4.82431 4.09955 -0.00336555 0.0279707 0.00903541 
645 3 8.3121 1.88001 5.36199 -0.00834995 -0.000447324 -0.000287849 
646 4 7.5354 1.58964 4.88381 0.0239695 0.00123545 -0.0141841 
647 4 9.02408 1.81479 4.72554 0.0125295 0.0135344 0.0143773 
773 4 7.77459 4.06086 0.427188 0.0115236 0.0125362 0.00068645 
866 4 7.19732 3.94222 5.74357 -0.0117836 -0.00434332 -0.00418369 
933 3 9.5912 1.84763 1.21961 0.00142107 -0.00171354 -0.00124229 
934 4 9.44583 2.57965 0.620238 -0.0165389 0.015231 0.00843056 
935 4 10.5435 1.7753 1.28355 0.00254394 -0.00219061 -0.00929227 
1005 3 11.0164 3.75748 4.91546 0.000214513 0.00222613 0.000133781 
1006 4 11.3803 2.96829 5.31667 0.00812724 0.0232225 -0.0059998 
1007 4 10.9541 4.38565 5.63501 -0.00338725 0.0114637 -0.0206285 
99 3 13.1208 3.33891 3.01926 -0.00659349 -0.00242764 0.00441018 
100 4 12.4424 3.39973 3.69179 -0.0117086 -0.0106894 -0.037888 
101 4 13.871 3.80137 3.3927 0.0202493 0.0200708 -0.00981803 
135 3 12.3393 2.30592 0.797327 0.00430616 -0.00100568 -0.00465195 
136 4 11.9668 3.08367 0.381841 0.018291 -0.0345846 0.00167236 
137 4 12.6949 2.62414 1.62707 0.00354749 -0.0161225 0.0186201 
240 3 15.0213 4.82538 4.68448 -0.00302744 0.0096725 -0.00141528 
241 4 15.2612 4.3121 5.45597 -0.00860763 0.0226568 -0.0283435 
300 3 16.5275 1.40481 4.60807 -0.00523779 0.00141532 0.000934351 
301 4 16.2732 1.6619 5.49434 0.00758547 -0.00896609 0.00514756 
302 4 16.6364 0.455017 4.65565 0.0111987 -0.0158633 0.0262408 
820 4 15.4644 1.44957 0.567212 -0.0092411 -0.0143046 -0.0127618 
915 3 14.9111 0.655349 2.62918 -0.00201701 -0.00109088 0.00231569 
916 4 14.1283 1.13821 2.89425 0.0299779 -0.00986604 0.00113571 
917 4 15.6032 0.98789 3.20071 0.0234274 0.00853331 0.00321697 
1086 3 17.1292 5.42288 1.56069 -0.00350627 0.00162909 -0.000977571 
117 3 18.4127 2.03233 2.63821 -0.0022698 0.00215715 -0.00581367 
118 4 17.8699 2.03327 3.42665 -0.0089257 -0.0170424 -0.0320598 
119 4 18.1291 1.25775 2.15258 -0.00215977 0.020117 -0.0333344 
259 4 22.3151 4.06982 0.729438 -0.0201702 -0.00781095 0.0258553 
480 3 21.4484 1.72642 1.47276 -0.00128935 -0.00252299 -0.00224725 
481 4 20.765 2.39524 1.51732 0.00377389 0.0383692 0.00280054 
482 4 21.0207 0.973196 1.06531 0.00715069 -0.0190534 0.00438834 
519 3 20.5446 3.52408 4.0293 -0.00776849 0.00192229 0.000866886 
520 4 20.9686 4.18397 3.48066 0.00943695 -0.00697839 0.01658 
521 4 19.8152 3.20346 3.49872 0.0281749 0.000674641 -0.0295097 
618 3 19.9995 3.85858 0.781383 0.000645228 0.000776318 -0.00266609 
620 4 19.1632 4.02688 1.2156 -0.0208571 -0.015022 -0.0311154 
877 4 17.8324 4.64282 5.54494 -0.00548205 -0.00650936 0.00105879 
937 4 20.7764 4.16395 5.74614 -0.0144652 -0.0115904 0.0174891 
988 4 22.1937 2.73045 4.05203 -0.000653256 -0.0127802 -0.00242222 
1056 3 19.7247 0.654446 5.27737 0.00320026 0.00226253 0.001031 
1057 4 20.0539 -0.168625 4.91632 -0.00752414 0.0329199 0.00526375 
1058 4 19.8848 1.29969 4.5887 0.0446605 -0.00105747 0.00291199 
1087 4 17.6506 5.17284 0.797873 0.00117014 0.0211742 0.00727212 
28 4 3.72636 7.11592 0.303045 -0.00898005 -0.018848 -0.0108407 
55 4 0.274126 5.77713 1.99275 -0.01446 0.000763275 0.00129346 
315 3 1.79641 8.98964 4.03186 0.00919631 0.00547772 -0.000620697 
316 4 1.32372 8.61972 3.28624 -0.0215065 -4.15186e-05 -0.00969753 
317 4 1.70772 9.93685 3.92625 -0.00928037 -0.015665 0.00939171 
414 3 2.46028 5.82745 3.69194 -0.00156983 0.000418523 0.00313473 
415 4 2.64799 6.75553 3.55173 0.00187964 0.0034736 0.0117322 
552 3 5.17074 8.52308 3.00613 -0.00479703 -0.00326029 0.0019558 
553 4 4.42918 9.03519 2.68354 -0.0109433 0.002875 0.0291457 
554 4 5.72382 8.39042 2.23623 0.00595283 -0.00951598 0.00648188 
622 4 0.749595 8.37131 0.595673 0.0163396 -0.000590263 0.0239159 
765 3 3.93377 10.4816 1.33905 -0.00397727 0.00355259 0.00193147 
766 4 3.5144 10.6372 0.492787 -0.0173534 0.00838834 -0.00624565 
849 3 5.2933 6.86667 4.96151 -0.00045575 0.00212549 -0.000970857 
850 4 5.8159 6.18711 4.53568 -0.00229137 -0.00545843 0.0336113 
851 4 5.18636 7.54213 4.29177 -0.0121931 -0.00171335 0.0316889 
928 4 4.83058 9.65756 5.64676 0.00420382 0.0170258 0.0181599 
420 3 7.5154 10.2394 4.09426 0.00419365 0.00477581 0.0031765 
421 4 6.94761 10.0076 4.82918 0.0209719 -0.0106942 -0.00933579 
422 4 7.07668 9.87211 3.32689 -0.0281162 -0.011366 -0.00595568 
595 4 8.80749 6.20259 3.53132 0.0240693 -0.00940632 -0.0168842 
687 3 6.28526 8.19975 0.674318 -0.00343249 0.00120199 0.00234628 
688 4 6.24672 8.95862 0.0922045 -0.00883282 0.0208564 0.00873933 
689 4 6.38102 7.4507 0.0861052 0.00815628 0.00590461 0.0213834 
774 3 10.567 7.24027 5.04668 0.00524573 -0.00274936 0.00509313 
775 4 11.4439 7.55996 5.25872 0.00201558 0.000160081 0.02941 
776 4 10.6067 7.03172 4.11332 -0.00766649 -0.0210119 -0.012619 
783 3 10.2755 10.7584 3.17549 -0.00174243 -0.00350563 -0.000472928 
784 4 11.1524 10.8877 3.53699 -0.0254998 -0.000113984 -0.0101989 
785 4 9.71986 10.6106 3.94074 0.00789633 0.00354784 -0.00257364 
822 3 10.3592 7.53988 2.31334 0.000509945 -0.00183503 0.00515173 
823 4 10.3151 7.57806 1.35791 0.0148801 2.19497e-05 0.00139356 
824 4 10.0407 8.39495 2.60262 0.00977164 -0.00822932 0.0106357 
21 3 16.3449 9.47569 2.24802 0.00096294 0.00263075 -0.00345257 
22 4 15.7808 9.7271 2.97933 0.0117283 0.0109592 -0.0166138 
23 4 16.4431 8.52759 2.33563 0.0180449 -0.0331239 0.004842 
242 4 15.6959 5.50198 4.62703 0.00972267 -0.0109341 -0.00634018 
341 4 13.9286 8.64701 0.200072 -0.0231981 0.0120906 -0.023198 
342 3 13.2505 6.82834 5.54245 0.00446355 0.0037498 0.00178894 
343 4 14.1878 6.9242 5.71112 -0.0139735 -0.000233419 0.0107267 
344 4 13.1707 5.98016 5.10605 -0.0274451 -0.00795687 0.0254743 
379 4 17.1317 5.51651 3.62071 -0.0255142 0.000856269 0.0146667 
1088 4 16.6488 6.20113 1.27836 0.0192726 0.00748217 0.0109932 
1095 3 15.4347 9.91351 4.90544 -0.00906376 0.00208916 0.00287155 
1096 4 15.9748 10.6037 5.29028 0.0244808 0.0235427 -0.0130362 
1097 4 15.7389 9.10871 5.32493 -0.021884 -0.0188678 0.014019 
33 3 19.4745 10.6573 0.537613 0.00290728 0.00201417 -0.00139129 
34 4 18.6953 10.644 1.0934 0.00735345 0.00719669 -0.00535777 
54 3 22.3158 5.7194 2.70198 -0.00309062 0.00377123 -0.00210474 
56 4 22.8382 5.534 3.48234 0.0146719 0.0138631 -0.00353395 
102 3 21.7165 10.9101 2.28797 0.0044451 -0.00363689 -0.00350697 
103 4 20.8467 11.0603 1.91766 0.0201861 0.0107429 0.0168164 
104 4 21.8549 9.96702 2.20076 -4.84126e-05 -0.0106365 0.0147621 
129 3 20.2912 7.89039 3.26218 0.00164365 -0.00140341 -0.000499272 
130 4 21.0475 7.34823 3.48643 0.00888083 -0.000636827 -0.0180331 
131 4 20.1947 7.78795 2.31538 0.0125601 0.0120148 0.0133853 
378 3 17.6012 5.86642 4.37787 0.000420934 0.00834569 0.000455574 
380 4 18.2933 6.40975 4.00097 -0.0299517 -0.00143656 0.0135311 
621 3 22.8071 8.26874 1.31389 0.00723968 -0.00302977 0.00794241 
623 4 21.957 8.18216 0.882373 -0.0200338 0.0154066 0.0208113 
810 3 20.1298 8.07335 0.310763 -0.00559338 -0.00747016 0.0030546 
811 4 19.8766 8.99628 0.293144 -0.0190604 -0.0188379 -0.00698665 
812 4 19.3066 7.59657 0.205251 0.00686904 0.0199464 0.000605912 
970 4 19.4339 8.04956 5.05956 -0.00110037 0.000112248 -0.00889258 
68 4 5.22098 16.3483 4.78844 -0.00185538 0.0264554 0.023951 
219 3 1.05053 14.8634 2.65387 0.00527362 0.00183387 -0.0033149 
220 4 1.4608 15.6498 3.01371 -0.00518729 0.0184967 0.0135067 
221 4 1.54918 14.6749 1.85884 0.00699848 0.0270807 -0.0029682 
540 3 1.12846 13.4399 5.47091 -0.00849879 0.0087673 4.60272e-05 
541 4 0.434833 13.824 4.93465 -0.00360558 -0.00882821 0.0101576 
542 4 1.89456 13.4244 4.89724 0.0192816 -0.0205631 -0.0195882 
717 3 1.81012 11.9391 2.688 0.00298243 -0.00753236 0.00409842 
718 4 1.68304 12.883 2.5921 -0.00999396 0.0142548 -0.0220556 
719 4 0.9539 11.5603 2.48909 0.0199738 -0.00328473 -0.0115865 
759 3 3.41563 16.6937 1.02075 -0.00223396 0.00447671 0.000828531 
760 4 3.75077 15.865 0.678304 0.0275274 -0.0021345 0.00374196 
761 4 3.14266 16.4907 1.91548 0.00526104 0.000283138 0.00192677 
767 4 3.76217 11.2778 1.84188 0.0150641 0.0111595 0.00993203 
816 3 5.04317 14.124 0.955804 0.00510806 0.0067467 0.00375928 
817 4 5.63854 14.2777 0.222224 -0.0124206 0.00484369 -0.00978618 
818 4 5.58918 14.2315 1.73461 -0.00534897 0.00275319 0.00262414 
840 3 2.4952 14.0236 0.483801 -0.000172083 -0.00488087 0.0038977 
841 4 3.34144 14.1818 0.902225 -0.0182549 0.0115697 -0.0153694 
153 3 6.91853 13.3212 3.34068 -0.00121857 -0.00563171 0.00222049 
154 4 7.67076 12.7299 3.36892 0.018066 0.0148516 -0.0245671 
155 4 6.41693 13.1092 4.12787 -0.00614081 0.00482036 -0.00508504 
303 3 10.9398 12.747 5.51834 0.00332013 -0.000435326 -0.00274903 
304 4 11.306 13.3987 4.92054 0.0133208 -0.00149208 -0.0130701 
465 3 11.0347 16.2466 3.45871 -0.00602984 0.00892566 -0.00268232 
467 4 10.2982 15.951 3.99391 0.00253918 0.0295042 0.00704368 
831 3 8.21213 15.9047 3.43724 0.00489697 0.00144184 -0.00191063 
832 4 8.26817 15.1931 2.79954 0.0152382 0.000768245 -0.00499216 
833 4 7.28816 15.932 3.68577 0.00952725 0.0248869 0.0267615 
954 3 10.5695 11.6054 0.467695 0.0050586 0.00532603 -0.00388895 
955 4 10.208 11.4448 1.33931 -0.00336509 0.00988211 0.00620491 
171 3 15.7996 14.117 3.97554 0.00370996 0.000342583 0.00106757 
172 4 15.7911 14.0116 3.0242 -0.0143645 0.0100905 -0.0319081 
173 4 15.3194 13.3575 4.30543 0.00676866 -0.0158033 0.0325023 
282 3 16.1654 13.2082 1.40977 0.0068916 0.00153464 -0.00551167 
283 4 15.9512 12.7978 0.571938 0.00422356 -0.00913981 0.00444608 
284 4 17.0549 12.9114 1.60196 0.00701292 -0.0137375 -0.0101093 
312 3 13.0441 13.0572 0.565516 0.00333604 0.000971668 -0.00119189 
313 4 12.2769 12.6027 0.913663 -0.00523059 -0.0132127 -0.0115627 
466 4 11.5595 15.4587 3.31656 -0.0171849 -0.0442017 -0.004994 
501 3 13.7055 12.1691 4.98101 -0.00120086 0.000315448 -0.00248675 
502 4 13.7018 11.2978 4.58473 0.018518 -0.0120434 -0.0225495 
503 4 12.9783 12.1529 5.60316 0.000808849 0.0205581 -0.00206427 
729 3 12.3456 13.9369 3.08646 -0.00218926 -0.00394515 0.00180361 
730 4 12.9559 13.3323 3.50868 -0.00978624 -0.0108226 0.000462391 
731 4 12.4993 13.8174 2.14925 0.00295487 0.00622474 0.00297366 
753 3 14.8605 16.1638 5.6447 0.00540847 0.000272687 0.00312181 
754 4 15.4664 15.822 4.98724 0.0213803 -0.0141481 0.00917359 
755 4 14.2232 16.6717 5.14264 -0.00271254 -0.00297117 -0.00909201 
159 3 20.4151 16.5913 3.72848 0.00141938 -0.00530067 -0.00212867 
160 4 19.6048 16.4035 3.25472 0.00279423 0.0190932 -0.0118286 
161 4 20.7551 15.7305 3.97293 0.0204078 0.00337024 -0.0134951 
167 4 22.5162 12.526 0.569421 0.0103605 -0.0167148 -0.0426171 
348 3 21.2872 13.6504 3.56356 -0.00129223 0.00209548 0.00129537 
349 4 21.8445 14.0011 2.8688 -0.0100448 -0.0100247 0.00798834 
350 4 21.2328 12.713 3.37742 -0.00431478 0.0207248 -0.0242769 
423 3 19.0255 13.0955 2.00048 0.00261371 -0.00225639 -0.00137916 
424 4 19.7615 13.4798 1.52416 0.00689992 0.0297059 -0.00302214 
425 4 19.1904 13.3177 2.91681 0.0225731 0.00310354 -0.0156857 
516 3 21.6885 15.4421 0.855282 0.00192326 -0.00117259 -0.00219262 
517 4 21.1268 15.7119 0.128701 -1.29275e-06 -0.0126809 -0.0105085 
518 4 22.0416 14.5948 0.583835 -0.026419 -0.0216374 -0.0304543 
945 3 17.9092 15.7052 3.04 0.00788644 -0.00225814 -0.00983042 
946 4 17.4463 14.8675 3.0547 -0.023108 0.00420285 0.0110807 
947 4 17.266 16.329 2.70319 -0.00219698 -0.00413714 0.0256911 
1076 4 20.0943 14.5017 5.37611 0.00970981 0.0170527 -0.0238608 
66 3 5.82932 17.019 4.47804 0.00648029 -0.000944131 -0.00901228 
98 4 5.30369 22.2252 0.934877 -0.00189228 0.0233912 0.025744 
270 3 2.00657 17.3189 3.68872 -0.00278843 -0.00340881 0.00484069 
271 4 1.42125 18.0183 3.39801 0.00148654 0.00943096 0.0082445 
272 4 1.95563 17.345 4.6442 0.00892159 -0.00539898 -0.0102138 
450 3 1.59445 21.8673 3.25084 0.00541456 -0.00578873 -0.00279119 
451 4 1.54849 21.296 4.01749 -0.0221801 0.0199055 -0.0239459 
452 4 0.749457 21.7535 2.81578 0.00186005 0.00665147 -0.00474655 
648 3 5.52458 18.8318 2.66975 0.000749767 -0.00160276 -0.00177788 
650 4 5.1995 18.1516 3.25963 -0.000873133 0.0048774 -0.0111397 
744 3 3.57952 19.5407 0.903192 -0.0028702 -0.00576751 0.0034948 
745 4 4.29925 19.3742 1.51188 0.00159178 -0.0223832 -0.0106054 
746 4 3.15535 18.6895 0.794532 -0.0174606 0.020766 0.025266 
1110 3 1.44802 21.601 0.405905 -0.00203529 0.00481228 -0.00259046 
1111 4 2.04187 20.858 0.51362 -0.016205 -0.0141044 0.00450433 
67 4 6.07028 17.5073 5.26529 0.0157457 -0.00660901 -0.0213144 
97 4 6.77208 22.2985 0.573813 0.0111789 -0.00187683 0.0258288 
120 3 6.67997 21.0625 3.94006 -0.00302791 -0.00641446 -0.00605996 
121 4 6.14388 20.3138 3.67861 0.00588535 -0.000457165 0.00352059 
122 4 6.8276 21.5472 3.12798 0.030134 -0.0121103 -0.00299656 
144 3 9.1542 20.769 5.33968 0.00436578 0.00256786 0.00253332 
145 4 8.47647 20.9316 4.68359 -0.00893973 0.00693599 -0.0117036 
146 4 9.68268 20.0623 4.9687 0.0174402 -0.000645155 -0.00729182 
204 3 10.455 18.4276 4.95792 -0.00290813 0.000164287 0.000155619 
205 4 10.7013 17.9775 4.14988 -0.0278563 -0.00913659 0.00496155 
206 4 9.72914 17.9114 5.30848 0.000410891 0.00267993 0.00649234 
293 4 7.54809 17.4408 0.853478 -0.00121967 -0.00106245 0.0185857 
399 3 8.28968 22.3475 1.92567 0.00299043 0.0039166 -0.00116293 
401 4 9.09408 21.8971 1.66816 -0.0381664 0.0152238 -0.00542261 
649 4 6.46354 18.6596 2.59931 0.0216331 -0.00907952 -0.00182761 
861 3 11.1912 17.7605 1.02633 0.00527405 -0.000131331 0.00559728 
862 4 11.3225 17.0524 0.395763 0.00562112 0.00648431 0.000563451 
863 4 11.3962 17.3674 1.87469 0.022712 0.0189032 0.0320135 
972 3 8.09444 18.444 2.53416 -0.00200108 0.00752772 -0.00275019 
973 4 8.92187 18.8292 2.24569 -0.016313 -0.00508855 -0.0217926 
974 4 8.32036 17.5472 2.781 -0.0218838 -0.0397676 -0.0188432 
990 3 10.6174 20.805 0.454449 0.00184373 -0.00288652 -0.00156298 
991 4 11.3323 21.3234 0.0851168 -0.00584452 0.0135601 0.00846276 
992 4 10.841 19.8996 0.238686 0.00261783 -0.0135838 0.00823135 
1003 4 11.3267 20.7358 3.57781 0.00876019 0.0094029 -0.0209379 
1004 4 11.343 20.3617 2.11093 0.00836415 -0.027255 0.011257 
63 3 16.5273 20.5184 1.30495 -0.002761 -0.00786168 0.00304502 
64 4 16.8743 20.6493 0.422509 0.0438554 -0.0181268 -0.0143725 
65 4 15.6567 20.9154 1.28184 0.00993615 -0.00931225 0.0146144 
432 3 16.0698 17.3406 1.86931 -0.00545712 -0.0045626 -0.00128367 
433 4 15.4721 18.0505 2.1037 -0.00922115 -0.00402419 0.011341 
434 4 15.6524 16.9122 1.12202 -0.0192416 -0.0156946 -0.00665384 
477 3 13.877 18.6118 3.73327 0.00410767 -0.00367193 0.00440569 
478 4 12.9685 18.8328 3.52794 -0.000868164 0.00942061 -0.02002 
479 4 14.2596 19.4327 4.04296 0.0238045 -0.0258888 0.00386928 
665 4 13.2937 18.0158 0.137342 -0.00960985 0.0128868 -0.0109993 
1002 3 11.6892 20.0976 2.96335 -0.00377223 -0.000541586 -0.00380489 
186 3 21.8198 21.1732 1.62202 -0.00550105 -0.00471361 0.00224119 
187 4 21.603 20.3018 1.29045 0.018039 -0.0341458 -0.00259225 
188 4 22.6214 21.4141 1.15775 0.0124313 0.00803805 0.0001599 
213 3 19.0615 21.858 1.43868 -0.00507628 0.00426419 -0.00378861 
214 4 18.2495 21.39 1.63307 -0.0020116 -0.00571679 -0.0342684 
215 4 19.7441 21.3431 1.86891 -0.0100268 0.0248235 0.0300387 
228 3 22.4446 18.8494 4.234 0.000582821 0.00161889 0.00480287 
229 4 22.6746 19.2346 5.07958 0.032856 0.0172801 -0.00157009 
230 4 22.2519 17.933 4.43215 0.0458953 0.00202464 0.018822 
255 3 17.9327 17.6415 4.96871 0.00664151 0.00225632 0.00217476 
256 4 18.2938 16.8108 4.65929 -0.0101164 0.0122567 0.0124008 
257 4 17.2733 17.3905 5.61554 -0.00162151 -0.0180825 0.00886666 
462 3 19.1258 19.4161 3.08804 -0.00206048 -0.00226311 0.00290483 
463 4 19.8889 19.4806 3.6623 0.0145924 -0.0190605 0.0214589 
464 4 18.6892 18.6085 3.35888 -0.0280307 -0.0187345 -0.0131756 
483 3 17.2262 21.5755 4.99311 -0.00589348 0.00440554 -0.00248603 
485 4 17.5242 20.9437 4.33864 -0.00176637 -0.028685 -0.0171417 
654 3 22.5991 17.8733 1.36513 -0.00136011 -0.00108438 -0.000673178 
655 4 22.3223 16.9654 1.48851 -0.00112697 -0.00795404 0.0201005 
656 4 22.1221 18.3628 2.03531 0.0327707 -0.00226404 0.0308859 
705 3 18.7965 18.0516 0.291553 -0.0017383 -0.00346418 0.00491762 
706 4 18.8931 17.0993 0.303634 -0.0117992 -0.0394367 -0.0216774 
707 4 17.997 18.218 0.790804 0.00314049 0.0123777 0.0103249 
768 3 20.8795 21.2567 4.11534 0.00204591 -0.00387292 0.00366634 
769 4 21.1086 21.6692 3.28255 -0.00065983 -0.00774391 -0.00605317 
770 4 21.596 20.6452 4.28542 0.00568811 0.00205092 0.00789817 
49 4 2.94363 1.20163 10.876 -0.0102295 -0.00899569 -0.00546238 
111 3 2.14134 2.39077 8.69982 -0.00087776 -0.00241771 0.0010547 
112 4 3.07192 2.21808 8.55691 -0.0146122 -0.000580827 -0.0260445 
113 4 1.94136 3.12446 8.1185 -0.00709034 -0.00186238 0.0164434 
223 4 0.476262 2.68998 10.9712 -0.0166494 0.0119278 0.00176534 
411 3 4.89373 2.85294 7.82948 -0.00180477 0.0117268 -0.00379064 
412 4 5.46172 2.50913 8.51899 0.00271288 -0.0099702 -0.033347 
413 4 5.01018 3.80201 7.87363 0.00206958 -0.0103585 0.0181403 
525 3 2.22824 3.70945 11.1423 0.00116738 0.00586548 0.011242 
526 4 2.66753 4.54911 11.0073 0.0326319 0.0307796 -0.0093636 
527 4 2.17116 3.32513 10.2675 -0.0121708 -0.0416506 -0.0100595 
556 4 0.334189 0.0813838 11.2481 -0.0138444 -0.0136662 0.0100881 
870 3 4.23766 1.04802 5.93447 0.00887307 -0.00432898 -0.00488201 
871 4 4.29735 1.60194 6.71284 -0.038409 -0.00985763 -0.00102937 
872 4 4.35025 0.156771 6.26496 -0.0134805 0.029279 -0.00655036 
888 3 5.50588 4.6667 10.2006 -0.000216088 0.000139303 0.000371057 
889 4 5.21671 4.58278 11.1093 0.00783921 -0.0319984 -0.00188074 
890 4 5.79384 3.78664 9.95818 0.00507571 -0.0102121 0.00819026 
1140 3 0.499324 1.37925 6.5998 0.00173783 -0.00626204 -0.000720849 
1141 4 1.21766 1.50897 7.21899 -0.00957176 0.0136118 -0.00629812 
60 3 10.5246 1.41892 10.3951 -0.00401295 -0.00224106 0.00132617 
61 4 10.6124 2.32875 10.111 -0.000551802 0.00491643 0.0226238 
62 4 10.8643 1.41315 11.29 -0.00780331 -0.00566252 0.00758971 
162 3 6.51897 1.94574 9.77022 0.00353489 0.00542243 -0.00375842 
163 4 6.83023 1.51809 10.568 0.00607358 0.00614179 0.00394049 
164 4 7.24357 1.85564 9.15129 -0.0461406 0.00715458 -0.00614799 
385 4 7.35387 5.13997 10.2078 0.0387186 -0.00494324 -0.0258639 
410 4 11.3276 5.26193 10.5875 0.00938112 0.0187035 -0.0140484 
581 4 6.60319 0.0614435 6.27966 0.0194044 -0.0188035 -0.00324107 
855 3 8.63286 1.46069 8.36813 0.000893404 -0.000795544 -0.00235467 
856 4 9.39881 1.23492 8.89593 -0.0172004 -0.0108076 -0.0148302 
857 4 8.92203 1.34365 7.46319 0.000708721 0.0349665 0.0165811 
864 3 7.58736 4.22318 6.57131 0.000449629 0.00677722 -0.00266155 
865 4 8.22226 3.53855 6.78205 0.0145774 -0.0155824 0.00683158 
891 3 10.3599 4.16177 9.6468 -0.000439666 0.00159094 0.00173075 
892 4 10.2915 4.53948 8.76992 -0.00174309 0.00405318 0.0200117 
893 4 9.7419 4.6674 10.1747 0.00900599 0.0044068 -0.0377849 
1121 4 9.13639 5.39573 6.89724 0.0205659 0.00103641 0.0196941 
15 3 14.6464 3.85584 7.39543 0.00237487 -0.00301102 -0.00151219 
16 4 14.3667 3.01894 7.76635 -0.0036413 -0.00783923 -0.00357917 
17 4 15.4895 4.03341 7.81255 -0.00496098 0.00139446 -0.0259465 
306 3 11.7332 1.7788 6.77566 0.00183536 -0.00892807 -0.000902124 
307 4 12.0179 1.95236 7.67289 -0.00719932 -0.0111231 -0.0282034 
308 4 12.2348 1.00821 6.50951 0.0211863 0.00198965 -0.00496399 
669 3 15.3759 1.11332 7.09001 0.00910952 0.00155872 0.00934065 
670 4 15.9524 0.428012 7.428 -0.00209997 -0.00261336 -0.0432409 
671 4 14.727 1.24365 7.78148 -0.00599024 0.00982889 0.00366136 
778 4 15.8777 5.21995 9.84324 0.0160906 0.0124521 0.00580979 
1014 3 17.0979 3.98621 8.94787 -0.00268078 -0.00714673 0.000238836 
1143 3 13.4785 1.67737 8.96466 0.00217263 -0.00281923 0.00386024 
1144 4 12.9267 1.96776 9.69085 0.00714062 0.0104118 0.00124839 
1145 4 13.9143 0.891277 9.29385 -0.00786698 0.00707505 0.0266107 
222 3 22.7467 1.83501 11.0976 0.0039735 0.00144312 0.00644924 
224 4 22.352 1.63096 10.2498 -0.00278347 -0.0311164 -0.00482495 
225 3 21.6103 4.89972 9.24161 -0.00311785 0.00701395 0.00050501 
226 4 21.6714 4.55878 8.34928 -0.0092745 -0.0131119 0.0108454 
227 4 20.8088 5.42301 9.2442 -0.00847669 0.0193528 -0.0366602 
680 4 22.7125 -0.129378 8.20382 -0.00307791 -0.0125467 0.0144462 
696 3 21.1416 1.4515 8.72553 0.00393626 0.000807479 0.0116565 
697 4 21.556 1.62139 7.8796 -0.015963 0.0147493 -0.00803433 
698 4 20.2492 1.18353 8.50607 -0.00994573 0.00129979 0.00569125 
738 3 18.76 1.19906 7.68885 -0.00157021 0.000999793 0.00112024 
739 4 18.9115 0.927034 6.78371 0.00424112 -0.0247217 0.00248324 
740 4 18.0474 1.83564 7.63203 0.0303889 0.0279034 0.0236823 
876 3 18.0463 3.90434 6.11517 0.0104243 -0.00179738 -0.00115652 
878 4 18.9211 3.63241 5.83777 -0.0125717 0.00812093 0.00128546 
930 3 19.2867 3.7634 10.9995 0.00135459 -0.00302602 -0.00462948 
932 4 20.0018 3.44184 10.4504 0.00268807 0.00869218 0.00117512 
936 3 21.0886 4.81332 6.37625 -0.000186459 -0.000840013 0.00766703 
938 4 22.0101 4.9421 6.15146 0.00660497 -0.00613409 0.0123483 
1015 4 17.847 3.8963 9.53688 -0.00170421 -0.0018886 0.0119027 
1016 4 17.4374 4.48005 8.20148 -0.0313816 -0.0042073 0.0260548 
1118 4 17.9607 0.172461 9.41948 -0.0142236 -0.00803615 -0.0325267 
150 3 3.1536 6.0995 11.2484 -0.00615243 0.00680576 -0.00264089 
151 4 3.92295 6.3761 10.7506 -0.00845506 -0.0405858 -0.0328859 
360 3 1.71358 10.7621 10.0165 0.0015027 -0.000524465 -0.00146134 
361 4 1.24827 10.4721 10.8011 -0.00105469 0.00731081 -0.0114619 
362 4 1.02616 10.887 9.36219 -0.0029924 0.019406 -0.0141838 
567 3 5.00263 7.38942 9.88652 -0.00297195 0.00412438 0.00187314 
568 4 5.20095 8.3227 9.80983 -0.00377324 0.0118303 -0.0153598 
569 4 5.79448 6.94959 9.57706 -0.00710243 0.0173709 0.0287106 
627 3 1.02332 5.55471 6.275 -0.000295675 0.00434068 0.00451159 
629 4 1.50362 5.71276 7.08775 -0.0109738 -0.00602891 -0.0170976 
639 3 4.22496 9.49648 8.36933 -0.00104022 -0.0045904 -0.00296939 
640 4 3.87231 8.84362 7.76464 -0.0122005 0.0137321 0.00470495 
641 4 3.48248 9.73554 8.92412 -0.00526241 0.000398916 -0.0159607 
789 3 3.26298 7.87506 6.43091 -0.00370565 0.0032206 0.00292986 
790 4 3.79769 7.30851 5.87473 -0.00837514 -0.00282787 -0.00992533 
791 4 2.5324 8.13973 5.87194 0.00277151 -0.0179696 -0.019588 
927 3 5.71422 9.63104 6.0138 0.00271798 0.00172181 0.00485864 
929 4 5.63038 9.09562 6.8028 0.0033006 -0.0241622 -0.00226655 
978 3 2.80988 5.48786 8.43679 -0.00427968 -0.000134508 0.00456675 
979 4 3.71098 5.55145 8.12024 -0.0113359 0.015649 0.0212293 
980 4 2.77149 6.09561 9.1753 -0.00956964 0.00640768 -0.00234163 
384 3 8.19588 5.48876 10.5004 0.000813929 0.000510724 0.00710422 
386 4 7.97827 6.04558 11.2479 0.0247879 -0.00438932 0.00655801 
393 3 7.12155 6.72049 7.5774 0.0022037 0.00578246 0.000901885 
394 4 7.15968 5.77663 7.4228 0.00209934 0.0127686 -0.0444067 
395 4 6.88384 7.09332 6.72844 0.00664945 -0.00105461 -0.0043328 
495 3 9.08154 7.9634 9.1921 0.00222643 -0.00954779 0.00144283 
496 4 8.43846 7.57655 8.59794 -0.0159174 -0.0185623 -0.0255999 
497 4 9.58748 7.2183 9.51626 0.000597051 -0.0216832 -0.00912023 
528 3 6.89497 9.74099 10.4451 -0.00669993 0.00543184 0.00261525 
529 4 7.59468 9.29884 9.96437 0.00893741 -0.0109919 -0.00610387 
530 4 6.68707 10.5094 9.91365 0.0117277 -0.000168409 0.00140668 
1083 3 9.08212 10.8041 9.06412 -0.00121107 0.00169251 -0.000173739 
1084 4 9.20565 9.86454 8.92937 0.0223501 0.0230772 -0.00971264 
1085 4 9.95209 11.1299 9.29488 0.00638196 -0.0138521 -0.00727434 
1119 3 10.0506 5.51797 7.15303 0.000654787 0.00510447 -0.00083075 
1120 4 10.3096 6.33848 6.73356 0.000718119 0.0242859 -0.0277697 
6 3 13.6852 8.92683 10.1459 -0.00969272 0.00425597 -0.00372491 
7 4 13.5753 8.25166 9.47634 -0.0109227 -0.0133253 -0.00112911 
8 4 12.8991 9.46792 10.0724 -0.00524446 0.0433549 0.0298003 
25 4 14.6559 11.0147 9.88178 -0.00906945 0.0114341 -0.00334495 
36 3 16.9238 7.65909 8.93363 -0.00511435 0.00123976 -0.00233661 
37 4 16.0386 7.41445 9.20331 -0.0198754 0.00561269 -0.0153388 
38 4 17.1556 8.39042 9.50605 0.0202267 -0.00501853 -0.00889141 
408 3 11.7224 5.88819 11.1942 0.00210502 0.00418187 -0.00396544 
409 4 12.0803 6.57472 10.6313 0.0274852 -0.00385441 -0.00832953 
471 3 13.4883 6.94792 8.43932 -0.00141897 -0.00712227 0.00793566 
472 4 13.4294 6.6351 7.5366 0.0154284 0.00666182 -0.0256419 
473 4 13.98 6.26658 8.89781 -0.00496017 -0.0359419 0.00661211 
651 3 16.0463 7.45207 6.30974 0.00132229 -0.000729047 -0.00813682 
652 4 16.7554 6.91958 5.94939 -0.022248 0.0231259 0.0224021 
653 4 16.3364 7.67052 7.19536 -0.00460954 -0.0118415 -0.00235954 
777 3 15.2426 5.69326 10.3807 0.00594406 -0.00833865 -0.00143868 
779 4 15.5413 5.5583 11.28 0.01161 -0.012934 0.00366083 
201 3 18.6468 11.135 6.35297 -4.18074e-05 -0.00453036 0.000948224 
244 4 21.6368 11.0297 10.9135 0.017665 -0.00741135 -0.0160198 
294 3 21.8673 9.74934 9.29024 -0.00192954 0.00398645 -0.00310566 
295 4 22.1007 8.93189 8.8503 -0.0457083 0.0393966 0.00872354 
296 4 21.6652 10.356 8.57795 0.000252172 0.00215315 0.00230896 
417 3 19.5024 6.92865 8.29229 -0.00216664 0.000514254 -0.00213375 
418 4 18.6514 7.12604 8.68365 -0.00459403 0.0227181 0.0275466 
419 4 19.4103 7.18659 7.3751 0.00510418 -0.00764287 0.000773344 
468 3 17.7156 9.25811 11.3385 0.00200275 -0.0073479 -0.00482945 
600 3 21.8092 10.2866 6.18148 0.0108001 0.0047369 3.91803e-05 
601 4 22.7114 10.5218 6.39838 -0.00501623 -0.00640644 0.00160553 
602 4 21.7658 9.3416 6.32771 0.00952069 -0.0112878 -0.00484927 
903 3 22.2919 7.61884 7.23244 -0.00190299 -0.00350611 -0.0067281 
904 4 22.7219 6.9281 6.72832 0.00584774 0.00172598 -0.019157 
905 4 21.6292 7.16123 7.74976 -0.0195035 -0.00352854 0.000142664 
949 4 22.4946 5.96487 10.8328 -0.0117079 0.0254541 0.0243555 
969 3 18.9185 8.16103 5.85838 -0.001551 -0.005196 -0.00192354 
971 4 18.9042 9.10686 6.00475 0.00733104 -0.012009 0.00249048 
985 4 18.4793 10.6839 9.98249 0.00269016 0.00833198 0.0120723 
39 3 4.33115 12.6104 8.62802 -0.000191361 -0.000133757 -0.00393361 
40 4 4.47422 11.6884 8.41424 -0.00594187 0.0170914 -0.0119859 
41 4 4.89496 12.7716 9.38457 0.00202765 0.0177415 0.00606617 
108 3 1.38662 11.3374 7.15608 0.00226499 -0.00454548 0.00352935 
109 4 1.23669 11.9793 6.46206 0.0127312 0.0113302 -0.0149782 
110 4 2.05737 11.7358 7.71069 0.018815 0.0208817 0.00337893 
363 3 4.36006 15.3682 8.87322 -0.00351154 -0.00476497 0.00197116 
364 4 4.69348 14.4843 8.71902 -0.00643536 0.00806534 -0.0184506 
365 4 5.00419 15.7692 9.45671 0.0211846 0.0200414 0.00234522 
375 3 3.89343 13.7619 11.3644 -0.00400704 0.000675668 0.0029479 
376 4 3.12118 13.3926 10.936 -0.0159328 -0.00433542 -0.0172977 
377 4 3.89736 14.682 11.1006 -0.00958635 -0.0018506 -0.0448326 
498 3 0.653491 15.2369 7.50007 -0.00371413 -0.00266288 -0.00615447 
499 4 1.50186 15.5317 7.16896 -0.0122445 -0.0121188 0.0110356 
500 4 0.475262 14.4293 7.01827 -0.0125016 -0.0330742 0.0121717 
549 3 1.37193 15.5503 10.1237 0.00435636 0.00182926 0.00321754 
550 4 1.09603 15.2246 9.26699 0.0139203 -0.0166553 0.0342628 
551 4 2.05833 16.1882 9.92833 0.0245054 -0.00925683 -0.00214349 
807 3 4.11754 15.196 6.12783 -0.00530085 -0.000978601 -0.0071475 
808 4 4.26457 14.2802 5.8913 -0.00141268 -0.0165718 -0.0036379 
809 4 4.23373 15.2201 7.07764 -0.00175977 0.0213057 0.0123453 
305 4 10.829 13.2156 6.3456 -0.00189181 0.0169206 0.0126784 
510 3 6.91209 12.9412 8.84684 -0.00211294 0.000370291 -0.00357152 
511 4 7.41932 12.2469 8.42627 -0.0333674 -0.0175694 0.00300546 
512 4 7.56782 13.5752 9.13734 0.00554916 0.00612935 -0.0101033 
732 3 5.84044 12.7279 5.95123 -0.00853975 -0.00801895 0.00328145 
733 4 6.17033 13.181 6.7272 0.00391563 -0.00518268 -0.0171271 
734 4 6.20594 11.8455 6.01499 0.00296328 -0.00154717 -0.0168466 
780 3 10.9235 13.9598 7.96009 -0.00244061 0.000390865 0.00540673 
782 4 10.333 14.5261 8.45692 0.0355474 -0.023282 0.0271861 
792 3 8.34305 11.9481 6.52245 0.00185397 -0.000465051 -0.00049636 
793 4 9.15274 12.2925 6.14566 -0.00768617 -0.00978241 0.0276307 
794 4 8.62754 11.4524 7.29034 -0.00369262 0.0094434 0.0125738 
1098 3 8.53465 15.1653 9.39989 0.0035307 -0.00165235 -0.00449432 
1099 4 7.65655 15.2245 9.77627 0.00259352 -0.00518422 0.00396048 
1100 4 8.96562 15.9771 9.66729 -0.00421097 0.00221607 -0.0507896 
1134 3 9.18153 16.3815 6.11244 0.000948117 0.00464535 0.00283487 
1135 4 8.38948 15.8677 5.95444 -0.0295418 0.0104827 0.000296315 
1136 4 9.40808 16.1989 7.02435 0.000902784 -0.0096922 0.0187965 