ITEM: TIMESTEP
0
ITEM: NUMBER OF ATOMS
96
ITEM: BOX BOUNDS pp pp pp
2.9236100000000000e+00 1.2773600000000000e+01
4.0306300000000004e+00 1.3880599999999999e+01
2.1372399999999998e+00 1.1987200000000000e+01
ITEM: ATOMS id type x y z vx vy vz
1 1 5.228 13.8149 2.93682 -0.0015787 -0.00351285 -0.00372772
2 2 5.30619 12.8842 3.26687 0.00982245 0.0140812 -0.00398369
3 2 11.308 12.8426 2.93694 0.0114841 -0.0351698 0.0189459
4 1 12.5107 9.68625 11.7752 -0.000368116 0.00487936 0.00627569
5 2 11.545 9.92665 11.5081 0.0224531 0.000676757 0.00356643
6 2 12.4597 8.73401 2.1572 0.0228326 -0.0208237 -0.00341331
7 1 3.01546 7.26247 2.93058 0.0025469 -0.00585374 -0.00219108
8 2 11.9297 7.02438 3.04425 0.00849026 -0.00455572 -0.0388949
9 2 8.80066 8.93711 7.246 -0.0019288 0.00118008 0.0166278
10 1 7.89944 9.30188 6.9504 0.00638056 0.00284602 0.00203028
11 2 7.29487 7.834 6.98087 -0.0221146 -0.015282 0.0181488
12 2 7.44448 9.62652 7.81581 0.00392759 0.00473426 -0.00603489
13 1 6.64499 9.28397 3.84975 0.00238059 0.000793404 0.00161732
14 2 5.9779 8.77973 4.23812 -0.0293323 0.00534627 0.000387128
15 2 6.9727 8.75225 3.12309 0.0103578 0.0293231 0.00770315
16 1 9.64733 7.30619 10.5484 -0.00262939 0.00292912 0.00306973
17 2 9.92919 7.02531 11.4356 0.0148893 0.00429037 -0.0125855
18 2 8.66395 7.19675 10.593 0.009992 0.0171906 -0.0241784
19 1 4.53865 6.57043 10.5462 -0.00593592 0.00274016 -0.00331619
20 2 3.73575 6.82567 11.0248 0.00169302 0.0141046 0.00650962
21 2 4.51899 8.39423 9.48556 0.00236261 -0.00868551 -0.0170965
22 1 9.91368 9.83225 11.2366 0.00187123 0.00329132 0.00134844
23 2 9.49942 9.87166 2.32336 -0.000226886 -0.00959409 -0.00995161
24 2 9.80522 8.93975 10.8818 0.0102054 0.00686494 -0.00584957
25 1 4.45639 7.94678 5.59142 0.000536566 0.00384287 0.00641154
26 2 3.90342 8.2832 6.31851 0.0079227 -0.00871879 0.027533
27 2 3.80102 6.28904 5.364 -0.0173059 0.00273745 -0.0203399
28 1 9.98915 7.04705 3.6022 -0.00487463 0.00160965 -0.0083628
29 2 9.27439 6.41453 3.99776 0.0136716 -0.0113666 0.0014637
30 2 9.71744 7.89661 3.91669 0.0297929 -0.0169244 0.0124259
31 1 11.5129 11.1765 5.25435 0.0032707 -0.00184278 -0.00335061
32 2 11.2853 12.1088 5.17427 -0.0254887 -0.000620391 -0.00768162
33 2 12.3638 11.1595 4.82459 -0.00203319 -0.0275624 0.0175142
34 1 7.54134 4.34513 10.8864 -0.000264337 -0.0039331 0.00365628
35 2 7.88762 13.3384 10.9118 -0.0192409 -0.0313288 0.00152503
36 2 7.04951 4.57858 11.7054 0.0111131 -0.0113485 0.0149264
37 1 8.53303 11.9527 10.056 0.000421042 0.00599728 -0.00386838
38 2 9.12848 12.3563 9.42469 -0.0031694 -0.0318117 0.00731651
39 2 9.22713 11.6825 10.7386 0.00635048 -0.0585825 -0.0164631
40 1 11.021 4.08549 4.92064 0.000222959 -0.00367795 0.00288632
41 2 11.7892 4.49587 5.32292 0.00770097 0.0267485 -0.0249037
42 2 10.3305 4.75522 4.78528 0.00811908 0.00167653 0.00421032
43 1 3.58098 5.30964 5.24158 0.00102911 -0.0020968 0.0013504
44 2 3.36995 7.68363 3.7492 -0.00476833 -0.0119039 0.0101725
45 2 4.53924 4.28281 3.48163 -0.00120583 -0.00568575 0.00123166
46 1 10.0921 13.4741 7.9751 -0.00153792 -0.000831126 -0.00848895
47 2 9.31345 13.2786 7.37715 -0.0175009 0.0402098 0.0203459
48 2 10.7267 12.7881 7.74395 -0.0216013 -0.0217618 0.0102392
49 1 10.9679 6.17037 8.45808 -0.00613012 -0.00157559 -0.00408596
50 2 10.839 5.19551 8.37062 0.00447273 0.0134763 0.00443708
51 2 10.8127 6.31005 9.41842 -0.00977703 -0.0163606 -0.00408752
52 1 9.39697 9.71855 4.05533 -0.00522923 0.00680408 -0.00582257
53 2 10.0598 9.87816 4.73801 -0.0086552 -0.0259551 -0.00577131
54 2 8.59052 9.47184 4.50768 -0.0309576 -0.0125743 0.00130566
55 1 4.49563 11.1377 3.73477 0.00258456 0.00578724 -0.00310725
56 2 5.31014 10.5208 3.66371 0.00198205 -0.0129069 0.0257627
57 2 3.79736 10.7602 3.17366 -0.000365316 -0.000296471 -0.0101615
58 1 6.74719 9.9392 9.29889 1.66681e-05 -0.00524934 -0.00192807
59 2 5.49632 10.4571 6.42699 0.00309432 0.0196195 -0.0116965
60 2 7.25885 10.6846 9.5509 -0.00157057 -0.0230219 -0.00689032
61 1 6.22192 4.68696 8.26781 0.005335 -0.00205457 0.00602543
62 2 6.625 4.51867 9.14081 0.0195723 0.0073593 -0.0101359
63 2 5.27567 4.74796 8.44739 0.0201492 0.0104951 0.00779451
64 1 4.94927 11.2844 6.39773 -0.0033763 0.00307157 0.00492128
65 2 4.78751 11.4184 5.43399 0.0201425 0.00973778 -0.0119438
66 2 3.9149 12.7363 7.48411 0.0036949 -0.00540267 0.00847205
67 1 11.9701 10.7118 7.95961 0.00190653 4.92114e-05 0.00170214
68 2 12.0484 10.8338 6.97094 -0.0205534 -0.0360819 -0.0144377
69 2 2.94743 10.1893 8.16995 -0.0225887 0.00843419 0.0190549
70 1 7.96785 5.32907 4.62514 0.00648094 -0.00604207 0.00188957
71 2 7.92483 4.43274 5.04215 -0.0098408 -0.00405175 0.00428929
72 2 7.35863 5.89511 5.17247 0.00190035 0.0118169 -0.0259751
73 1 10.4373 8.51615 7.12122 -0.00127581 0.00297364 -3.83966e-05
74 2 10.6324 7.77907 7.68509 -0.00487471 -0.0267249 -0.00754359
75 2 10.8474 9.29395 7.54675 -0.00591971 -0.00559481 0.00341329
76 1 3.75175 13.816 10.5162 -0.00358379 0.000983029 0.00138915
77 2 12.7252 13.8333 10.9523 0.017996 0.0384005 0.0177048
78 2 4.55905 5.59307 10.5051 -0.00679848 0.0173412 -0.0126012
79 1 4.03691 9.28688 9.2933 -0.0013469 0.00161864 0.00096181
80 2 3.62875 9.5289 10.192 -0.0045765 0.00588558 0.010387
81 2 5.86043 10.2225 9.12083 0.00835093 -0.0136654 0.00156217
82 1 6.92306 7.73526 11.2617 -0.00159052 -0.00230623 0.00534254
83 2 6.04473 7.25478 11.2305 -0.0056811 -0.00526229 0.0113961
84 2 6.75969 8.51435 10.7763 0.00632428 -0.0224082 -0.0096516
85 1 11.3376 13.3993 2.18634 -0.00279549 -0.00411916 0.00267862
86 2 11.0356 4.35275 2.64927 -0.0043754 0.0027506 -0.0103007
87 2 4.43117 13.5973 11.1969 -0.00753252 0.000161218 0.00613472
88 1 7.69468 12.8977 6.43517 0.000741752 -0.00418013 -0.00508693
89 2 6.93443 12.2599 6.42499 0.00280653 0.00576794 -0.00740439
90 2 7.27804 13.6289 6.93477 -0.00789685 0.0287212 0.0141112
91 1 6.72408 6.89111 6.6758 0.0010837 -0.00195167 -0.0026093
92 2 5.29864 7.69261 6.00858 0.0241242 -0.000877094 0.0162157
93 2 6.60117 6.36669 7.43584 0.0183421 -0.0129116 0.00838951
94 1 3.58518 13.6484 7.68291 0.00479464 0.0114673 0.00116632
95 2 3.54143 13.6653 8.64698 -0.00409197 0.00383098 -0.0183697
96 2 3.69177 4.89708 6.09856 -0.0296573 0.00514015 0.0171443
ITEM: TIMESTEP
1
ITEM: NUMBER OF ATOMS
96
ITEM: BOX BOUNDS pp pp pp
2.9236100000000000e+00 1.2773600000000000e+01
4.0306300000000004e+00 1.3880599999999999e+01
2.1372399999999998e+00 1.1987200000000000e+01
ITEM: ATOMS id type x y z vx vy vz
1 1 5.22727 13.8131 2.93493 -0.00135101 -0.00383914 -0.0038466
2 2 5.31101 12.8919 3.26442 0.00948816 0.0159524 -0.00560931
3 2 11.314 12.8239 2.94715 0.0123289 -0.0380153 0.0205796
4 1 12.5105 9.68875 11.7783 -0.000402064 0.00506972 0.00610993
5 2 11.5567 9.92712 11.51 0.0237416 0.00114742 0.00389907
6 2 12.4716 8.72297 2.15585 0.0245798 -0.0225197 -0.00220597
7 1 3.01675 7.25956 2.92945 0.00265956 -0.0057822 -0.00233124
8 2 11.9341 7.02242 3.02591 0.0085113 -0.00337343 -0.034305
9 2 8.79992 8.93804 7.25392 -0.000988873 0.00246615 0.0149412
10 1 7.90258 9.30321 6.95147 0.00617355 0.00246697 0.00224933
11 2 7.28205 7.82406 6.9887 -0.0288357 -0.0241623 0.0130942
12 2 7.4467 9.62877 7.81238 0.00485915 0.00430762 -0.00770698
13 1 6.64624 9.28447 3.85054 0.00255252 0.00120888 0.00161758
14 2 5.96196 8.78111 4.23925 -0.033604 0.000579124 0.00348986
15 2 6.97785 8.76643 3.12631 0.0102455 0.0269044 0.00476783
16 1 9.64599 7.3076 10.5499 -0.00267536 0.00271421 0.00302977
17 2 9.93661 7.02746 11.4298 0.0145028 0.00415317 -0.0103226
18 2 8.66915 7.20555 10.5809 0.0103151 0.0178235 -0.0236423
19 1 4.53571 6.57185 10.5445 -0.00583006 0.00297806 -0.00352657
20 2 3.73674 6.83243 11.0285 0.00228468 0.0128519 0.0082152
21 2 4.51876 8.39198 9.47674 -0.00339476 -0.000166719 -0.0179864
22 1 9.91462 9.83406 11.2374 0.00188145 0.00394976 0.00169298
23 2 9.49995 9.86642 2.31713 0.00217235 -0.0112995 -0.014437
24 2 9.80994 8.94192 10.8786 0.00871077 0.00184854 -0.0071835
25 1 4.45658 7.94871 5.5946 0.0002539 0.00388201 0.00636441
26 2 3.90757 8.27877 6.33206 0.00881358 -0.00910714 0.0263165
27 2 3.79232 6.28961 5.35372 -0.0174078 -0.000420693 -0.0205511
28 1 9.98664 7.04768 3.59804 -0.00510971 0.000881353 -0.00828477
29 2 9.28251 6.40967 3.9976 0.0185737 -0.00800464 -0.00201817
30 2 9.73241 7.88939 3.92297 0.0297484 -0.0114208 0.0130027
31 1 11.5146 11.1755 5.25269 0.00330302 -0.00196197 -0.0032811
32 2 11.2719 12.1091 5.17066 -0.027797 0.00161817 -0.00691058
33 2 12.3635 11.1452 4.83307 0.00120614 -0.0291101 0.016192
34 1 7.54112 4.3434 10.8882 -0.000609376 -0.00305239 0.00363726
35 2 7.8786 13.3205 10.9131 -0.017146 -0.0394811 0.00365908
36 2 7.05536 4.57197 11.7125 0.0123026 -0.0150272 0.0132494
37 1 8.53336 11.9557 10.0542 0.000884607 0.00583787 -0.00346757
38 2 9.12668 12.3409 9.42751 -0.00340495 -0.0293177 0.00330391
39 2 9.2289 11.6529 10.7296 0.000509894 -0.0596287 -0.0198014
40 1 11.021 4.08361 4.92204 -5.79737e-05 -0.00380983 0.00273827
41 2 11.7933 4.51011 5.31049 0.00880029 0.0298503 -0.0249157
42 2 10.3351 4.75609 4.78771 0.00990138 0.001737 0.00537703
43 1 3.58151 5.30866 5.24224 0.00109689 -0.00185987 0.00127867
44 2 3.36671 7.67694 3.75409 -0.00826127 -0.0148622 0.00933373
45 2 4.5378 4.2809 3.48305 -0.00445541 -0.00201259 0.00435333
46 1 10.0913 13.4736 7.97082 -0.00177806 -0.00103546 -0.00857921
47 2 9.30562 13.299 7.38791 -0.0140181 0.0408611 0.0222664
48 2 10.716 12.7772 7.74913 -0.0212838 -0.0218366 0.0102588
49 1 10.9649 6.16954 8.4561 -0.00602968 -0.00171592 -0.00381405
50 2 10.8412 5.20234 8.3721 0.00418971 0.0131122 0.00122931
51 2 10.8076 6.30256 9.41584 -0.0105986 -0.0133583 -0.00603187
52 1 9.39437 9.72194 4.05239 -0.00522581 0.00673724 -0.00588752
53 2 10.0556 9.8656 4.73554 -0.00804153 -0.024248 -0.00403736
54 2 8.57436 9.4658 4.50881 -0.0325514 -0.0112658 0.00259277
55 1 4.49699 11.1406 3.73319 0.00286092 0.00562474 -0.00320725
56 2 5.30963 10.5151 3.67639 -0.00420718 -0.00969836 0.0248406
57 2 3.79752 10.7596 3.16841 0.00128796 -0.00193447 -0.0106169
58 1 6.74721 9.93643 9.29791 6.83331e-05 -0.0058672 -0.00201262
59 2 5.4972 10.4679 6.42119 0.000702967 0.0232564 -0.0112505
60 2 7.25891 10.6748 9.54799 0.00202031 -0.0159124 -0.00458392
61 1 6.22461 4.68596 8.27085 0.00544131 -0.00195622 0.00607639
62 2 6.63479 4.52246 9.13572 0.019703 0.00768769 -0.0097135
63 2 5.2857 4.75289 8.45116 0.0193747 0.00924955 0.00748382
64 1 4.94765 11.2859 6.40021 -0.00312934 0.00286253 0.00493806
65 2 4.79744 11.4233 5.42843 0.0194836 0.00997252 -0.00986096
66 2 3.91654 12.7344 7.48818 0.00272511 -0.00186232 0.00774915
67 1 11.9711 10.7118 7.96038 0.00205485 -0.000100073 0.00134981
68 2 12.0375 10.8161 6.96423 -0.0230165 -0.034699 -0.0121096
69 2 2.93543 10.1939 8.18011 -0.0246616 0.0097363 0.0215429
70 1 7.97107 5.32604 4.62612 0.00641554 -0.00607388 0.00203074
71 2 7.91991 4.43153 5.04414 -0.00989339 -0.000822213 0.00378732
72 2 7.36024 5.90048 5.1593 0.00447385 0.00956958 -0.0265663
73 1 10.4366 8.51771 7.12113 -0.00141215 0.00322663 -0.000287013
74 2 10.6301 7.76406 7.68224 -0.00433827 -0.032423 -0.00430565
75 2 10.8449 9.29198 7.5486 -0.00400347 -0.00239528 0.00415088
76 1 3.74999 13.8165 10.5168 -0.00344175 0.00101701 0.00117317
77 2 12.7341 13.8522 10.9617 0.0169437 0.0371912 0.0197389
78 2 4.55517 5.60159 10.499 -0.00874251 0.0161625 -0.0116716
79 1 4.03629 9.28759 9.2939 -0.00115437 0.00121244 0.00144278
80 2 3.62686 9.53137 10.1959 -0.00276227 0.00377267 0.00506066
81 2 5.86333 10.216 9.12148 0.00288521 -0.0122043 0.000976879
82 1 6.92223 7.73403 11.2644 -0.00171558 -0.00263946 0.00559329
83 2 6.04237 7.252 11.2362 -0.00360018 -0.00574307 0.0112501
84 2 6.76299 8.50453 10.7704 0.00679451 -0.0166627 -0.0139324
85 1 11.3362 13.3973 2.18767 -0.00294491 -0.00383419 0.00270506
86 2 11.0337 4.35396 2.64351 -0.00329142 0.00146154 -0.0125004
87 2 4.42729 13.5974 11.2007 -0.00779424 0.000139268 0.00883099
88 1 7.69495 12.8956 6.43263 0.000330112 -0.00413857 -0.00501124
89 2 6.93681 12.2631 6.42107 0.00650078 0.0071236 -0.00821421
90 2 7.27444 13.6432 6.94181 -0.00597462 0.0271283 0.0132852
91 1 6.72476 6.8904 6.67447 0.00163101 -0.000928596 -0.00267761
92 2 5.31151 7.69174 6.01709 0.026461 -0.0024031 0.0172882
93 2 6.61028 6.3594 7.44119 0.0180374 -0.016055 0.0124783
94 1 3.5876 13.6541 7.68347 0.00491385 0.0112172 0.0010336
95 2 3.53923 13.6673 8.63798 -0.0047934 0.00414419 -0.0168563
96 2 3.67714 4.89943 6.10781 -0.028823 0.0045474 0.0195663
ITEM: TIMESTEP
2
ITEM: NUMBER OF ATOMS
96
ITEM: BOX BOUNDS pp pp pp
2.9236100000000000e+00 1.2773600000000000e+01
4.0306300000000004e+00 1.3880599999999999e+01
2.1372399999999998e+00 1.1987200000000000e+01
ITEM: ATOMS id type x y z vx vy vz
1 1 5.22665 13.8111 2.93297 -0.00115098 -0.00406044 -0.00396989
2 2 5.31568 12.9002 3.26126 0.00924405 0.0164496 -0.00675005
3 2 11.3203 12.8046 2.95752 0.0129709 -0.037991 0.0197561
4 1 12.5103 9.69132 11.7813 -0.00032829 0.00515503 0.00598557
5 2 11.5687 9.9278 11.512 0.0240347 0.00151868 0.00409155
6 2 12.4843 8.71149 2.15499 0.0259606 -0.0225311 -0.00140806
7 1 3.01812 7.25669 2.92825 0.0028246 -0.00569217 -0.00248679
8 2 11.9382 7.02101 3.00994 0.00774025 -0.00237318 -0.0294219
9 2 8.79967 8.93958 7.26094 6.7028e-05 0.00356686 0.0130633
10 1 7.90561 9.30435 6.95265 0.00597639 0.00211225 0.0024645
11 2 7.26603 7.80984 6.99396 -0.034713 -0.0322034 0.0080062
12 2 7.44934 9.63083 7.8081 0.0055621 0.00400402 -0.00932693
13 1 6.64754 9.28518 3.85137 0.00261091 0.00160778 0.00174496
14 2 5.9443 8.78031 4.24161 -0.0360312 -0.00323148 0.00526501
15 2 6.98295 8.77915 3.12786 0.0100778 0.0236444 0.00120022
16 1 9.64465 7.3089 10.5514 -0.00262846 0.00253929 0.00290262
17 2 9.94369 7.02946 11.4253 0.0135794 0.00375656 -0.007386
18 2 8.67427 7.21457 10.5694 0.00961773 0.0180988 -0.0223408
19 1 4.53282 6.57341 10.5427 -0.00571592 0.00329094 -0.00373596
20 2 3.73803 6.83852 11.033 0.00291513 0.0114353 0.00980697
21 2 4.5156 8.39406 9.46757 -0.00918879 0.00830345 -0.0184712
22 1 9.91556 9.8362 11.2383 0.0018978 0.00457889 0.00196125
23 2 9.50159 9.86036 2.30892 0.00413061 -0.0128373 -0.0177524
24 2 9.81393 8.9416 10.8746 0.00729405 -0.00291825 -0.00854418
25 1 4.45664 7.95066 5.59778 7.72448e-05 0.00389381 0.00642111
26 2 3.91223 8.27409 6.34483 0.0099363 -0.00965941 0.0244774
27 2 3.78361 6.28862 5.34345 -0.0173171 -0.00342077 -0.0203364
28 1 9.98404 7.04793 3.59392 -0.00526925 0.000105788 -0.00825872
29 2 9.29296 6.40653 3.99574 0.0228509 -0.00461684 -0.00524355
30 2 9.74719 7.88519 3.92969 0.0291263 -0.0050832 0.0141306
31 1 11.5162 11.1745 5.25107 0.00324064 -0.00207399 -0.00316783
32 2 11.2575 12.1104 5.16736 -0.0290194 0.00302235 -0.00641618
33 2 12.365 11.1304 4.84078 0.00488188 -0.0297804 0.0144861
34 1 7.54073 4.34208 10.89 -0.00089913 -0.0023164 0.00364959
35 2 7.87047 13.2989 10.9155 -0.0157709 -0.0455063 0.00548932
36 2 7.06181 4.56355 11.7186 0.0134483 -0.0185109 0.0113586
37 1 8.53391 11.9585 10.0525 0.00128561 0.00558443 -0.00298438
38 2 9.12508 12.327 9.42799 -0.00250205 -0.0258556 -0.0019441
39 2 9.22764 11.6229 10.7188 -0.00557476 -0.0602006 -0.0231672
40 1 11.0209 4.08168 4.92338 -0.000286561 -0.00390564 0.00261544
41 2 11.798 4.52572 5.298 0.009654 0.0321832 -0.0251653
42 2 10.3404 4.75696 4.79066 0.0110814 0.00169149 0.00627023
43 1 3.58208 5.30778 5.24286 0.00115698 -0.00166634 0.00122681
44 2 3.36169 7.66877 3.75853 -0.0118415 -0.0177713 0.00848543
45 2 4.53478 4.2808 3.48598 -0.00729221 0.00142188 0.0071772
46 1 10.0903 13.4731 7.96652 -0.00196923 -0.00118455 -0.00859315
47 2 9.29943 13.3195 7.39942 -0.0110541 0.0407302 0.0232888
48 2 10.7054 12.7663 7.75421 -0.0212411 -0.0221616 0.00987146
49 1 10.9619 6.16865 8.45427 -0.00591882 -0.00178051 -0.00354665
50 2 10.8432 5.20862 8.37185 0.00383724 0.0113334 -0.00241409
51 2 10.8021 6.29669 9.41239 -0.0114088 -0.00997135 -0.00752272
52 1 9.39174 9.72529 4.04944 -0.00536026 0.00662573 -0.00587986
53 2 10.0518 9.85391 4.73397 -0.00742915 -0.022494 -0.00221218
54 2 8.55797 9.46057 4.51027 -0.0319446 -0.00931934 0.00266919
55 1 4.49849 11.1433 3.73156 0.00311731 0.00542601 -0.00331555
56 2 5.30593 10.5111 3.68855 -0.0105649 -0.00621363 0.0237063
57 2 3.79865 10.7583 3.16304 0.00340607 -0.00329377 -0.0106357
58 1 6.74726 9.93333 9.29688 0.000129291 -0.006533 -0.00209616
59 2 5.49702 10.4804 6.41574 -0.00106505 0.0258821 -0.0103131
60 2 7.26087 10.6687 9.54632 0.00581414 -0.00823401 -0.00210869
61 1 6.22736 4.685 8.27389 0.00561169 -0.00185145 0.0060387
62 2 6.6447 4.52636 9.1311 0.0200344 0.00782501 -0.00833332
63 2 5.29504 4.75721 8.45487 0.0174896 0.0080525 0.00756789
64 1 4.94614 11.2873 6.40267 -0.00291015 0.002703 0.00486532
65 2 4.80699 11.4284 5.42413 0.0186224 0.0104347 -0.00697112
66 2 3.91763 12.7344 7.49186 0.00156251 0.00226069 0.00688211
67 1 11.9722 10.7117 7.96096 0.00207404 -0.000183481 0.000962716
68 2 12.0254 10.7991 6.95883 -0.0250801 -0.0333763 -0.00927666
69 2 12.7728 10.199 8.19149 -0.02521 0.0102141 0.0238885
70 1 7.97427 5.323 4.62717 0.00636805 -0.00609695 0.0021383
71 2 7.91494 4.43192 5.04594 -0.0100395 0.00224189 0.00351261
72 2 7.3631 5.90468 5.1459 0.00685399 0.00720291 -0.0268871
73 1 10.4359 8.51938 7.12093 -0.00153633 0.00337551 -0.000482392
74 2 10.6281 7.74665 7.68078 -0.00402969 -0.0361443 -0.00211032
75 2 10.8434 9.29155 7.5509 -0.00201415 0.000393304 0.00515208
76 1 3.74831 13.817 10.5174 -0.00327063 0.00104612 0.000981725
77 2 12.7421 13.8705 10.972 0.0150129 0.035996 0.0216998
78 2 4.55031 5.60923 10.4934 -0.0107308 0.013919 -0.0107201
79 1 4.03576 9.28809 9.29474 -0.000975132 0.000825678 0.00192363
80 2 3.62599 9.53267 10.1971 -0.000657679 0.00133241 -0.000497238
81 2 5.86332 10.2103 9.12181 -0.00298368 -0.0104832 0.000347923
82 1 6.92134 7.73262 11.2673 -0.00185007 -0.00299014 0.00585495
83 2 6.04113 7.24904 11.2418 -0.00128008 -0.0059685 0.0110401
84 2 6.76648 8.49769 10.7624 0.00712077 -0.0108358 -0.018325
85 1 11.3347 13.3955 2.18905 -0.00308231 -0.00367208 0.002864
86 2 11.0323 4.35421 2.63677 -0.00216159 -0.000660963 -0.014226
87 2 4.42338 13.5974 11.2057 -0.00773098 0.0001354 0.011167
88 1 7.69501 12.8936 6.43016 -0.000111114 -0.00393001 -0.00484782
89 2 6.94093 12.267 6.41678 0.00961976 0.00819083 -0.00892152
90 2 7.27207 13.656 6.94806 -0.00312202 0.0232768 0.011053
91 1 6.72571 6.89018 6.67312 0.00212098 8.30081e-07 -0.0026655
92 2 5.3251 7.69021 6.02587 0.0269461 -0.00352564 0.0172742
93 2 6.61921 6.35063 7.44832 0.0176306 -0.0187218 0.0153491
94 1 3.59009 13.6596 7.68394 0.00505155 0.0109168 0.000811409
95 2 3.53664 13.6694 8.63012 -0.00565102 0.00469097 -0.0138666
96 2 3.66295 4.90163 6.11813 -0.0279257 0.00458692 0.0212915
ITEM: TIMESTEP
3
ITEM: NUMBER OF ATOMS
96
ITEM: BOX BOUNDS pp pp pp
2.9236100000000000e+00 1.2773600000000000e+01
4.0306300000000004e+00 1.3880599999999999e+01
2.1372399999999998e+00 1.1987200000000000e+01
ITEM: ATOMS id type x y z vx vy vz
1 1 5.22612 13.809 2.93096 -0.00100015 -0.00416118 -0.0040865
2 2 5.32025 12.9083 3.25767 0.00908098 0.0155132 -0.00734515
3 2 11.327 12.7859 2.96691 0.0134203 -0.0356523 0.016894
4 1 12.5102 9.69391 11.7843 -0.000146034 0.00513425 0.00590677
5 2 11.5807 9.92864 11.5141 0.0232889 0.00178005 0.00411783
6 2 12.4976 8.70044 2.15444 0.0269417 -0.0208369 -0.00100314
7 1 3.01958 7.25387 2.92696 0.00302753 -0.0055893 -0.0026595
8 2 11.9418 7.02005 2.99648 0.0062553 -0.00157017 -0.0243668
9 2 8.79998 8.94161 7.26698 0.00124481 0.00445615 0.0110174
10 1 7.90855 9.30532 6.95393 0.00579951 0.00179633 0.00266423
11 2 7.24733 7.79186 6.99671 -0.039448 -0.0389365 0.00320391
12 2 7.45226 9.63277 7.80305 0.005976 0.00384534 -0.0107671
13 1 6.64885 9.28608 3.85229 0.00254878 0.00195788 0.00198247
14 2 5.92593 8.77788 4.24451 -0.0363415 -0.00587481 0.00563734
15 2 6.98793 8.79007 3.12751 0.00972188 0.0198223 -0.00267648
16 1 9.64336 7.31013 10.5528 -0.00249117 0.00240092 0.00270482
17 2 9.95018 7.03121 11.4224 0.0121252 0.00315845 -0.00395574
18 2 8.67877 7.22365 10.5586 0.00793535 0.018043 -0.0203487
19 1 4.52999 6.57514 10.5408 -0.00559733 0.00366375 -0.00394069
20 2 3.73966 6.84387 11.0383 0.00362051 0.0098983 0.0112471
21 2 4.50957 8.40028 9.45827 -0.0146253 0.0160358 -0.0184935
22 1 9.91652 9.83864 11.2393 0.00192521 0.00515527 0.00212983
23 2 9.50408 9.85358 2.29938 0.00553075 -0.0141748 -0.0196568
24 2 9.81724 8.939 10.87 0.00601138 -0.00711308 -0.00983004
25 1 4.45665 7.95261 5.60102 1.36978e-05 0.00387617 0.00657436
26 2 3.91751 8.26911 6.35653 0.0112033 -0.0103162 0.0221232
27 2 3.775 6.28619 5.33339 -0.0170269 -0.0060738 -0.0197099
28 1 9.98138 7.04779 3.58979 -0.00534655 -0.000661905 -0.00828581
29 2 9.30536 6.40505 3.99236 0.0262395 -0.00144627 -0.00801747
30 2 9.76153 7.8843 3.9371 0.0280968 0.00152274 0.0156224
31 1 11.5178 11.1735 5.24952 0.00310103 -0.00216949 -0.00302278
32 2 11.2428 12.1122 5.16424 -0.0290641 0.00343487 -0.00617646
33 2 12.3684 11.1154 4.84756 0.00861587 -0.0295507 0.0125704
34 1 7.54022 4.34108 10.8919 -0.0011214 -0.00176556 0.00368688
35 2 7.86283 13.275 10.9186 -0.0152013 -0.0488697 0.00694402
36 2 7.06881 4.55346 11.7238 0.014452 -0.0216997 0.00940006
37 1 8.53465 11.9613 10.0512 0.00161631 0.00525556 -0.00245325
38 2 9.12418 12.315 9.42557 -0.000676129 -0.021645 -0.00810416
39 2 9.22332 11.5927 10.7064 -0.0115989 -0.0603838 -0.026339
40 1 11.0207 4.07971 4.92466 -0.00044816 -0.00395638 0.00252388
41 2 11.803 4.54229 5.28533 0.0101516 0.0335946 -0.0257037
42 2 10.3462 4.75778 4.79398 0.0115532 0.00155257 0.00687102
43 1 3.58267 5.30699 5.24346 0.00120684 -0.00153197 0.00120494
44 2 3.35487 7.65917 3.76257 -0.0153571 -0.0205235 0.00777796
45 2 4.5305 4.28232 3.49022 -0.00938217 0.00442482 0.00945601
46 1 10.0893 13.4724 7.96223 -0.00209711 -0.0012818 -0.00852722
47 2 9.29457 13.3397 7.4112 -0.00880375 0.039842 0.0233439
48 2 10.6948 12.7551 7.759 -0.0214928 -0.0226844 0.00911441
49 1 10.9589 6.16776 8.45256 -0.00579639 -0.00176983 -0.00329791
50 2 10.845 5.21367 8.36968 0.00341517 0.00828729 -0.00635504
51 2 10.7962 6.29259 9.40832 -0.0122436 -0.0063288 -0.00849017
52 1 9.38901 9.72857 4.04651 -0.00561488 0.00646946 -0.00579445
53 2 10.0482 9.84311 4.73332 -0.00692102 -0.0207097 -0.000437962
54 2 8.54242 9.45648 4.51148 -0.0293262 -0.00676425 0.00164087
55 1 4.50011 11.146 3.72988 0.00333357 0.00520885 -0.00343194
56 2 5.29907 10.5089 3.7001 -0.0166406 -0.00273763 0.0223981
57 2 3.80093 10.7563 3.15777 0.00582891 -0.00436502 -0.0102924
58 1 6.74734 9.9299 9.29581 0.000194534 -0.00719164 -0.00217087
59 2 5.49614 10.4938 6.41088 -0.00203547 0.0272553 -0.00890069
60 2 7.26472 10.6665 9.54589 0.00929863 -0.000691578 0.000283285
61 1 6.23022 4.68411 8.27689 0.00583676 -0.00174024 0.00592295
62 2 6.65483 4.53028 9.12739 0.0205311 0.00780467 -0.00610725
63 2 5.30319 4.76094 8.45873 0.0146617 0.00690723 0.00801857
64 1 4.94474 11.2886 6.40507 -0.00272749 0.00260733 0.00471623
65 2 4.81606 11.4337 5.42146 0.017531 0.0111398 -0.00343042
66 2 3.9181 12.7367 7.49506 0.000313379 0.00667494 0.0058479
67 1 11.9732 10.7116 7.96134 0.00195698 -0.000200075 0.000553163
68 2 12.0124 10.7827 6.95495 -0.0266534 -0.0321236 -0.00610879
69 2 12.7602 10.2042 8.204 -0.0242536 0.0098609 0.0260233
70 1 7.97744 5.31994 4.62826 0.0063455 -0.00610909 0.00220336
71 2 7.90987 4.43377 5.04766 -0.01027 0.00491796 0.0035162
72 2 7.36709 5.90768 5.13242 0.00890759 0.00488493 -0.0268848
73 1 10.4351 8.52109 7.12065 -0.00163717 0.00341706 -0.000605289
74 2 10.6261 7.72792 7.68013 -0.00399891 -0.037571 -0.00111035
75 2 10.8429 9.29238 7.55375 -7.47743e-05 0.0024954 0.00628661
76 1 3.74672 13.8175 10.5178 -0.00308217 0.00106966 0.000832857
77 2 12.7491 4.03822 10.9834 0.0124487 0.0348263 0.0234267
78 2 4.54444 5.61551 10.4883 -0.0127299 0.0107905 -0.00977252
79 1 4.03531 9.28841 9.29582 -0.000814122 0.000488382 0.00236924
80 2 3.62621 9.5327 10.1954 0.00150589 -0.00123617 -0.00582567
81 2 5.86034 10.2055 9.12183 -0.00863486 -0.00868104 -0.000191236
82 1 6.92038 7.73104 11.2703 -0.00199043 -0.00331786 0.00610728
83 2 6.04109 7.24603 11.2472 0.00115682 -0.00594541 0.0107169
84 2 6.77011 8.4937 10.7521 0.00736028 -0.00552856 -0.0224677
85 1 11.3331 13.3937 2.19053 -0.00319675 -0.00363595 0.00312093
86 2 11.0315 4.3533 2.62929 -0.00115197 -0.0030161 -0.0153863
87 2 4.41956 13.5975 11.2118 -0.00739965 0.00015905 0.0130325
88 1 7.69484 12.8917 6.42779 -0.000551183 -0.00357198 -0.00461469
89 2 6.94643 12.2713 6.41215 0.011936 0.00879299 -0.00952833
90 2 7.27132 13.6664 6.95286 0.000419765 0.0175777 0.00768258
91 1 6.72689 6.8904 6.6718 0.00252925 0.000784677 -0.00257609
92 2 5.33846 7.68822 6.03436 0.0255554 -0.00423542 0.0161806
93 2 6.62791 6.34068 7.45654 0.0171189 -0.0207849 0.0168186
94 1 3.59266 13.665 7.68428 0.00520066 0.0105874 0.00051716
95 2 3.53358 13.672 8.62411 -0.00665612 0.0054296 -0.00962922
96 2 3.64922 4.90401 6.1291 -0.0269648 0.00527392 0.022162
