ITEM: TIMESTEP
0
ITEM: NUMBER OF ATOMS
96
ITEM: BOX BOUNDS pp pp pp
2.9236100000000000e+00 1.2773600000000000e+01
4.0306300000000004e+00 1.3880599999999999e+01
2.1372399999999998e+00 1.1987200000000000e+01
ITEM: ATOMS id type x y z vx vy vz
1 1 5.23199 13.8202 2.94394 0.00228788 0.00171295 0.00347897
2 2 5.28462 12.8709 3.26619 -0.0119447 0.0026117 -0.00496003
3 2 11.2908 12.8753 2.92309 -0.00499148 -0.00926872 0.00868889
4 1 12.5106 9.67786 11.7618 -0.000701933 -0.00334747 -0.00717315
5 2 11.5113 9.92758 11.5029 -0.00917388 0.00160667 -0.00144468
6 2 12.4231 8.75936 2.17135 -0.0131854 0.00200348 0.0114341
7 1 3.01034 7.27429 2.93448 -0.00279705 0.00588344 0.00173614
8 2 11.9182 7.03898 3.13703 -0.00113143 0.0100605 0.0519739
9 2 8.80737 8.94076 7.20739 0.00429826 0.00501194 -0.0214298
10 1 7.8859 9.2947 6.94716 -0.00709163 -0.00424186 -0.00125613
11 2 7.3098 7.82748 6.92773 -0.00679637 -0.0209718 -0.0325683
12 2 7.44133 9.61467 7.82185 0.000995297 -0.00733436 0.00053197
13 1 6.64142 9.28371 3.84565 -0.00113949 0.000215777 -0.0027594
14 2 6.01271 8.74782 4.25593 0.005565 -0.0252272 0.0190192
15 2 6.95073 8.69202 3.10283 -0.0122424 -0.0270844 -0.00922619
16 1 9.65182 7.2992 10.5428 0.00165682 -0.00415644 -0.00221561
17 2 9.90159 7.01825 11.464 -0.0111809 -0.00194291 0.0132588
18 2 8.6514 7.16734 10.6378 -0.000722037 -0.0113372 0.0182629
19 1 4.55084 6.56531 10.552 0.00619748 -0.00262238 0.00255195
20 2 3.73486 6.7941 11.0189 0.000973171 -0.0165583 0.0006441
21 2 4.4957 8.43878 9.51429 -0.0175666 0.0304531 0.0112937
22 1 9.91 9.82822 11.2355 -0.00177942 -0.00087046 0.000189165
23 2 9.51078 9.88342 2.32107 0.0109197 0.00216957 -0.0122424
24 2 9.77901 8.90789 10.8894 -0.0156344 -0.022907 0.00248837
25 1 4.45366 7.93939 5.57773 -0.00229078 -0.00352037 -0.00749795
26 2 3.8892 8.30052 6.26327 -0.00699639 0.00917032 -0.0258684
27 2 3.83411 6.27198 5.40102 0.0154547 -0.0130819 0.0156433
28 1 9.99757 7.04172 3.61951 0.00345199 -0.00325535 0.00900368
29 2 9.26762 6.44789 3.98129 0.00588335 0.0198051 -0.014033
30 2 9.66312 7.94267 3.88953 -0.0219765 0.0244017 -0.0165398
31 1 11.5072 11.1798 5.26093 -0.00210563 0.00159445 0.00305065
32 2 11.3213 12.1218 5.19465 0.00898851 0.0121929 0.0134131
33 2 12.3745 11.2031 4.7884 0.00532176 0.0142634 -0.0166237
34 1 7.54033 4.35694 10.8788 -0.00122249 0.0077757 -0.00408716
35 2 7.93667 13.3626 10.9186 0.0291527 -0.00566612 0.0084918
36 2 7.03145 4.5861 11.6715 -0.0074745 -0.00375999 -0.0174534
37 1 8.53428 11.9408 10.0645 0.00166283 -0.00561188 0.00425843
38 2 9.12573 12.4221 9.40371 -0.00878948 0.0307847 -0.00985615
39 2 9.19602 11.7917 10.7611 -0.0215837 0.0490286 0.00826501
40 1 11.0193 4.09215 4.91419 -0.00146357 0.00292923 -0.00355647
41 2 11.7782 4.45816 5.37329 -0.00397953 -0.0103048 0.0252091
42 2 10.324 4.7532 4.78303 0.00210561 0.000301027 0.00239548
43 1 3.57923 5.31486 5.23862 -0.000704908 0.00306512 -0.00153299
44 2 3.36802 7.69661 3.72736 -0.00486041 0.00202561 -0.0102607
45 2 4.52989 4.30818 3.49074 -0.00859843 0.018546 0.00893775
46 1 10.0941 13.4746 7.99128 0.000454673 -0.000494753 0.00755891
47 2 9.36333 13.2058 7.3488 0.0317095 -0.0308387 -0.00686733
48 2 10.7727 12.8334 7.72658 0.0248093 0.0244496 -0.00586004
49 1 10.9805 6.17254 8.46719 0.0064854 0.000498277 0.00489617
50 2 10.8293 5.17659 8.35304 -0.00515283 -0.00219332 -0.011172
51 2 10.8285 6.35107 9.41716 0.00572864 0.0228723 -0.00529266
52 1 9.4084 9.70493 4.06637 0.00653 -0.00674751 0.0051717
53 2 10.0783 9.93617 4.75423 0.00877909 0.0315096 0.00892484
54 2 8.63199 9.49853 4.5178 0.00632737 0.0131856 0.0136172
55 1 4.49147 11.1259 3.74064 -0.001716 -0.00585114 0.00277688
56 2 5.28711 10.555 3.61002 -0.0172098 0.0186567 -0.0273833
57 2 3.80041 10.7527 3.18893 0.000791782 -0.00814782 0.00394279
58 1 6.74725 9.94806 9.30248 2.20488e-05 0.00408732 0.00171109
59 2 5.47858 10.4359 6.44898 -0.0145307 -0.00158561 0.00915208
60 2 7.2704 10.7486 9.57043 0.00639623 0.0349779 0.0106086
61 1 6.21121 4.69142 8.25657 -0.00555448 0.00239502 -0.00500156
62 2 6.58527 4.50668 9.1563 -0.0203323 -0.00410082 0.00316208
63 2 5.23999 4.72187 8.42791 -0.0128548 -0.015526 -0.0126291
64 1 4.95709 11.2773 6.38864 0.00443213 -0.00401631 -0.00388746
65 2 4.74549 11.3985 5.4596 -0.0217116 -0.0105891 0.0108076
66 2 3.90601 12.7545 7.46488 -0.00389036 0.00928032 -0.0106691
67 1 11.9676 10.7107 7.95513 -0.000476701 -0.00114903 -0.00262277
68 2 12.0781 10.9118 7.00425 0.00894976 0.0419691 0.0165619
69 2 2.97539 10.1823 8.14205 0.00281907 0.00266684 -0.00900108
70 1 7.95458 5.341 4.62205 -0.00678702 0.00589685 -0.00119534
71 2 7.94506 4.45227 5.03068 0.0107529 0.0138764 -0.00726796
72 2 7.36502 5.86491 5.22081 0.0077386 -0.0168819 0.0220884
73 1 10.4394 8.51177 7.12026 0.000900128 -0.00128161 -0.000870288
74 2 10.6448 7.80227 7.71672 0.00714559 -0.00368804 0.0236945
75 2 10.8651 9.31719 7.53985 0.0106047 0.0159579 -0.00504489
76 1 3.75921 13.8142 10.5126 0.00374789 -0.000872343 -0.00218769
77 2 12.6926 13.752 10.9243 -0.0113333 -0.04251 -0.0109421
78 2 4.56568 5.56154 10.5335 0.000424915 -0.0112097 0.0153535
79 1 4.04041 9.2822 9.29294 0.00213381 -0.00287341 0.000320557
80 2 3.64083 9.51296 10.1561 0.00499208 -0.0076482 -0.0215454
81 2 5.8302 10.2523 9.11689 -0.0170495 0.0142793 -0.00145128
82 1 6.92582 7.73906 11.2518 0.00121153 0.00182457 -0.00472291
83 2 6.06179 7.26182 11.207 0.0100489 0.0012773 -0.0122555
84 2 6.75046 8.57544 10.7825 -0.00215208 0.0341102 -0.00107215
85 1 11.3426 13.4093 2.18012 0.00222182 0.0059664 -0.00372675
86 2 11.046 4.35814 2.65795 0.00522501 0.01317 -0.00261659
87 2 4.44254 13.5969 11.1965 0.0026909 -0.000142022 0.00573005
88 1 7.69202 12.905 6.44494 -0.00165782 0.00274386 0.00439514
89 2 6.9449 12.2538 6.43588 0.0127885 -0.00113811 0.00324549
90 2 7.29361 13.5828 6.91439 0.00442044 -0.0104495 -0.00184146
91 1 6.72419 6.89916 6.68029 0.00109148 0.00589968 0.00175264
92 2 5.26988 7.68616 5.98691 -0.00221931 -0.00772166 -0.00354287
93 2 6.56423 6.37904 7.44017 -0.0179841 0.000188874 0.0129266
94 1 3.57588 13.625 7.68072 -0.00460733 -0.0116552 -0.000771381
95 2 3.54782 13.657 8.67926 0.00265412 -0.00523805 0.0100688
96 2 3.75374 4.88097 6.07605 0.0318325 -0.0118358 -0.00574931
ITEM: TIMESTEP
1
ITEM: NUMBER OF ATOMS
96
ITEM: BOX BOUNDS pp pp pp
2.9236100000000000e+00 1.2773600000000000e+01
4.0306300000000004e+00 1.3880599999999999e+01
2.1372399999999998e+00 1.1987200000000000e+01
ITEM: ATOMS id type x y z vx vy vz
1 1 5.23315 13.8209 2.94568 0.00232288 0.00130056 0.00349269
2 2 5.27849 12.8734 3.26315 -0.0126041 0.00741656 -0.00706349
3 2 11.2887 12.8677 2.92924 -0.00346684 -0.0189921 0.0144485
4 1 12.5101 9.6763 11.7582 -0.00113947 -0.00289117 -0.00739382
5 2 11.5079 9.92851 11.5023 -0.00446183 0.00205368 -0.000858024
6 2 12.4172 8.7589 2.17765 -0.0104069 -0.00365614 0.013695
7 1 3.00889 7.27722 2.93532 -0.00304712 0.00582341 0.00164349
8 2 11.9184 7.04433 3.16349 0.0018986 0.0112351 0.05343
9 2 8.80958 8.94367 7.19646 0.00443802 0.00660063 -0.022204
10 1 7.88232 9.29251 6.94657 -0.00719582 -0.00448081 -0.00110603
11 2 7.30477 7.81498 6.911 -0.0128509 -0.0284543 -0.0337739
12 2 7.44216 9.61081 7.82187 0.00232879 -0.00812786 -0.000351939
13 1 6.64092 9.28382 3.84416 -0.000882889 0.000123165 -0.00319834
14 2 6.01424 8.73436 4.26664 0.00131254 -0.0277983 0.0234098
15 2 6.94438 8.67925 3.09867 -0.0132499 -0.0234551 -0.00698149
16 1 9.65256 7.29703 10.5418 0.00128783 -0.0045222 -0.00176702
17 2 9.89648 7.01755 11.4703 -0.00907187 -0.000777083 0.0114676
18 2 8.65185 7.16217 10.6462 0.00251339 -0.0092947 0.0149993
19 1 4.55394 6.56397 10.5532 0.00620515 -0.00277284 0.00240036
20 2 3.73555 6.78583 11.0197 0.00181815 -0.0163014 0.00234595
21 2 4.48661 8.45431 9.51956 -0.0179449 0.0303001 0.00990076
22 1 9.90912 9.82791 11.2357 -0.00171953 -0.000427801 0.000458018
23 2 9.51681 9.88406 2.3137 0.0129639 0.000492258 -0.0166771
24 2 9.77094 8.89586 10.8906 -0.0165302 -0.0246287 0.00236979
25 1 4.4524 7.93765 5.57388 -0.0027264 -0.00343741 -0.00789511
26 2 3.88566 8.30522 6.25072 -0.00714811 0.00965093 -0.0241713
27 2 3.84168 6.26505 5.40839 0.0148198 -0.0142563 0.0137569
28 1 9.9992 7.04007 3.62406 0.00307838 -0.0032517 0.00916931
29 2 9.27151 6.45789 3.9737 0.00910787 0.0195969 -0.0159575
30 2 9.65304 7.95456 3.88073 -0.0179759 0.0225431 -0.0187776
31 1 11.5063 11.1806 5.26241 -0.00160382 0.00166804 0.00283336
32 2 11.3246 12.1285 5.20182 0.00414725 0.0140749 0.0153127
33 2 12.3768 11.2091 4.78049 0.00330495 0.0098312 -0.0147321
34 1 7.53964 4.36103 10.8767 -0.00147367 0.008502 -0.00428161
35 2 7.95163 13.358 10.9235 0.030097 -0.0116128 0.0108834
36 2 7.02784 4.5833 11.6629 -0.00711792 -0.00734964 -0.0167687
37 1 8.53523 11.9381 10.0666 0.00210728 -0.00527177 0.004049
38 2 9.12018 12.4369 9.3992 -0.0135575 0.0281493 -0.00781133
39 2 9.18486 11.8154 10.7651 -0.0223596 0.0454702 0.00845019
40 1 11.0185 4.09356 4.91237 -0.00169892 0.00270591 -0.00370091
41 2 11.7763 4.45409 5.38583 -0.00397337 -0.00605677 0.0247661
42 2 10.3257 4.7536 4.7847 0.00464729 0.00143765 0.00426912
43 1 3.5789 5.31644 5.23786 -0.000608385 0.00320542 -0.00147465
44 2 3.36535 7.6972 3.7225 -0.0053425 0.000590894 -0.00887192
45 2 4.52539 4.31801 3.49555 -0.00885444 0.0204457 0.00991378
46 1 10.0943 13.4742 7.99498 0.00024646 -0.000916514 0.00725363
47 2 9.37989 13.1912 7.34633 0.0341326 -0.0274123 -0.00311979
48 2 10.7854 12.8459 7.72413 0.0258067 0.0258377 -0.00377326
49 1 10.9838 6.17271 8.46966 0.00658312 0.000201375 0.0049566
50 2 10.8267 5.17666 8.34737 -0.00533294 0.00259611 -0.0112177
51 2 10.8311 6.36261 9.414 0.00441646 0.0230089 -0.00711385
52 1 9.41179 9.70157 4.06892 0.00703582 -0.00670397 0.0050414
53 2 10.0825 9.95216 4.7586 0.00772626 0.0322946 0.00822006
54 2 8.63311 9.50507 4.5258 -0.0016638 0.0130535 0.0182173
55 1 4.49064 11.123 3.74201 -0.00165855 -0.00570927 0.00269755
56 2 5.27827 10.5642 3.59631 -0.0173213 0.0177789 -0.0274365
57 2 3.80053 10.7481 3.19035 -0.000501701 -0.0103224 0.00169802
58 1 6.74725 9.95011 9.30333 -1.77654e-05 0.00421055 0.00170767
59 2 5.47069 10.4361 6.45323 -0.0167604 0.00200647 0.00775117
60 2 7.27327 10.7658 9.57561 0.00448067 0.0326479 0.00975074
61 1 6.20839 4.69264 8.25416 -0.00572727 0.00247167 -0.00461849
62 2 6.57506 4.50491 9.15714 -0.0204388 -0.00293682 0.000138084
63 2 5.23439 4.71381 8.42115 -0.00942988 -0.0166518 -0.0144624
64 1 4.95937 11.2752 6.38681 0.00465893 -0.00417407 -0.00342184
65 2 4.73455 11.3931 5.46447 -0.0220702 -0.0111414 0.00835685
66 2 3.90428 12.7588 7.45941 -0.00279261 0.00721205 -0.0112154
67 1 11.9675 10.71 7.95379 -7.10339e-05 -0.00148325 -0.00272889
68 2 12.0819 10.9332 7.01228 0.00616731 0.0434146 0.0152522
69 2 2.97526 10.1845 8.13814 -0.00326865 0.00593853 -0.00673509
70 1 7.95117 5.34394 4.62149 -0.00684646 0.00587595 -0.00104043
71 2 7.95056 4.45949 5.02687 0.0112981 0.0145483 -0.0079316
72 2 7.36937 5.85643 5.23159 0.00945382 -0.0167408 0.0210435
73 1 10.4398 8.51125 7.1198 0.000914631 -0.000821497 -0.000912896
74 2 10.6484 7.79872 7.72936 0.00711132 -0.009719 0.0262543
75 2 10.8705 9.32545 7.53696 0.0106787 0.0165162 -0.00675346
76 1 3.76107 13.8138 10.5115 0.00369264 -0.000877501 -0.0023154
77 2 12.6879 13.7306 10.9191 -0.00723983 -0.0430832 -0.00981275
78 2 4.56561 5.55676 10.5413 -0.000524352 -0.00769545 0.0155964
79 1 4.04152 9.28072 9.29313 0.00229584 -0.00297036 0.000362436
80 2 3.6429 9.50945 10.1454 0.0028201 -0.00595449 -0.0206364
81 2 5.82198 10.2592 9.11634 -0.0150593 0.0128743 -0.00061698
82 1 6.92641 7.74 11.2495 0.00114938 0.00200505 -0.00468522
83 2 6.06686 7.26214 11.2008 0.0100292 -6.76887e-06 -0.0126984
84 2 6.74977 8.59239 10.7817 -0.000516839 0.0327653 -0.00162817
85 1 11.3437 13.4124 2.17819 0.0020572 0.00641021 -0.00390732
86 2 11.0487 4.36587 2.65573 0.00595965 0.0159514 -0.00615945
87 2 4.4434 13.5968 11.2001 0.0006043 -2.28378e-05 0.00837108
88 1 7.69118 12.9062 6.44705 -0.00167485 0.00213486 0.00403233
89 2 6.95211 12.2533 6.43721 0.0157425 -0.000919914 0.00206891
90 2 7.29511 13.5797 6.9149 0.00135994 -0.00137535 0.00413879
91 1 6.72485 6.90231 6.6811 0.00147565 0.00659807 0.0014854
92 2 5.27037 7.68174 5.98617 0.00383323 -0.00981212 0.000550728
93 2 6.55538 6.37855 7.44786 -0.0172416 -0.00174268 0.0173684
94 1 3.57357 13.6192 7.6804 -0.00464449 -0.0114712 -0.00050191
95 2 3.54911 13.6542 8.68321 0.00254437 -0.00621207 0.00548803
96 2 3.76969 4.87454 6.07373 0.0318235 -0.013812 -0.00393413
ITEM: TIMESTEP
2
ITEM: NUMBER OF ATOMS
96
ITEM: BOX BOUNDS pp pp pp
2.9236100000000000e+00 1.2773600000000000e+01
4.0306300000000004e+00 1.3880599999999999e+01
2.1372399999999998e+00 1.1987200000000000e+01
ITEM: ATOMS id type x y z vx vy vz
1 1 5.23431 13.8215 2.94743 0.0022853 0.000963663 0.00353052
2 2 5.27202 12.8783 3.25913 -0.0132833 0.0117049 -0.00881749
3 2 11.2873 12.8563 2.93754 -0.00221943 -0.0243632 0.0172002
4 1 12.5095 9.67497 11.7544 -0.00160941 -0.00246064 -0.00758689
5 2 11.5068 9.92963 11.502 0.00047607 0.00236434 -0.000301522
6 2 12.4127 8.7557 2.18505 -0.00760189 -0.00875522 0.0157578
7 1 3.00729 7.28011 2.93612 -0.00336401 0.00574188 0.00156327
8 2 11.9201 7.05022 3.19046 0.00504271 0.012157 0.0540411
9 2 8.81181 8.94736 7.18519 0.00437176 0.00812547 -0.0228372
10 1 7.8787 9.29022 6.94605 -0.00726084 -0.00465927 -0.000975451
11 2 7.29695 7.79903 6.89396 -0.0177607 -0.0345418 -0.0338497
12 2 7.44366 9.60654 7.8215 0.00365531 -0.00893886 -0.00103137
13 1 6.64054 9.28383 3.84245 -0.000710596 -0.000141309 -0.00362723
14 2 6.01402 8.72002 4.27934 -0.00131517 -0.0286194 0.0268386
15 2 6.93748 8.66856 3.09585 -0.0143882 -0.0188957 -0.00403117
16 1 9.65311 7.29468 10.541 0.000905737 -0.00489118 -0.00125108
17 2 9.89252 7.01747 11.4755 -0.00659637 0.000493014 0.00913457
18 2 8.65391 7.15805 10.6528 0.00558663 -0.00717658 0.0112398
19 1 4.55705 6.56254 10.5544 0.00618514 -0.00296785 0.00226989
20 2 3.73668 6.7778 11.0212 0.00274103 -0.0156211 0.00396624
21 2 4.47776 8.46908 9.52419 -0.0166446 0.0273545 0.00879716
22 1 9.90828 9.82779 11.236 -0.0016383 -7.99866e-05 0.000627319
23 2 9.52374 9.88391 2.30439 0.0144338 -0.00097953 -0.019828
24 2 9.76248 8.88326 10.8918 -0.0171357 -0.0251391 0.00253761
25 1 4.45093 7.93595 5.56983 -0.00309448 -0.00336996 -0.00828822
26 2 3.88205 8.31017 6.2391 -0.00724263 0.0101522 -0.0222225
27 2 3.84893 6.25772 5.41478 0.0142048 -0.0146383 0.0117248
28 1 10.0006 7.03847 3.62868 0.00274592 -0.0030827 0.00930458
29 2 9.27673 6.46749 3.96533 0.0110773 0.0181652 -0.0171467
30 2 9.64514 7.96521 3.87075 -0.0133535 0.0196104 -0.021187
31 1 11.5056 11.1815 5.26376 -0.00105997 0.00181548 0.00257675
32 2 11.3254 12.1359 5.20996 -0.0005685 0.0150257 0.0172596
33 2 12.3778 11.2129 4.77367 0.000382436 0.00527659 -0.012332
34 1 7.53886 4.36544 10.8745 -0.00162895 0.00904504 -0.00449819
35 2 7.96677 13.351 10.9295 0.0297632 -0.0149812 0.0129854
36 2 7.02433 4.57875 11.6547 -0.00703837 -0.0107789 -0.0155625
37 1 8.53639 11.9355 10.0685 0.00247971 -0.00485966 0.00374454
38 2 9.11217 12.4502 9.3959 -0.0184826 0.0248996 -0.0051613
39 2 9.17366 11.8372 10.7696 -0.0218066 0.0416317 0.00963926
40 1 11.0176 4.09486 4.91049 -0.00187214 0.00247184 -0.00382098
41 2 11.7742 4.4521 5.39806 -0.00452783 -0.00203914 0.0239041
42 2 10.3286 4.75464 4.7873 0.00689548 0.00289818 0.00611688
43 1 3.57862 5.31807 5.23715 -0.000502597 0.00327043 -0.00135276
44 2 3.36268 7.6972 3.71849 -0.00481278 -0.000304117 -0.00685702
45 2 4.52104 4.32863 3.50065 -0.00800139 0.0216402 0.0101074
46 1 10.0943 13.4737 7.99853 9.55054e-05 -0.00135145 0.00695181
47 2 9.39746 13.1784 7.34568 0.0357104 -0.0238915 0.000306199
48 2 10.7985 12.8592 7.72281 0.0267505 0.027447 -0.00137601
49 1 10.9871 6.17274 8.47215 0.00669384 -6.0202e-05 0.00494096
50 2 10.824 5.17919 8.34182 -0.00559047 0.00747918 -0.0106904
51 2 10.8329 6.37408 9.41005 0.0029669 0.0226156 -0.00837466
52 1 9.41544 9.69823 4.07141 0.00752644 -0.00666894 0.00498112
53 2 10.086 9.96846 4.76245 0.00614764 0.0327267 0.0068293
54 2 8.63033 9.51158 4.53602 -0.00891062 0.0131742 0.0222979
55 1 4.48981 11.1202 3.74334 -0.00169179 -0.00552013 0.00260811
56 2 5.26979 10.5728 3.58258 -0.0158228 0.0160228 -0.027429
57 2 3.79991 10.7424 3.19063 -0.00209362 -0.012308 -0.000521212
58 1 6.74723 9.95227 9.30419 -7.51752e-05 0.00448213 0.00172729
59 2 5.46182 10.4379 6.45673 -0.0183633 0.00457187 0.00621017
60 2 7.27488 10.7812 9.58018 0.00147164 0.0283605 0.0082433
61 1 6.20548 4.69389 8.25195 -0.00591695 0.00254759 -0.00423102
62 2 6.56483 4.50374 9.15644 -0.020324 -0.0017281 -0.00288338
63 2 5.23056 4.70522 8.41345 -0.00596123 -0.017678 -0.0163932
64 1 4.96175 11.2731 6.38522 0.00484991 -0.00426028 -0.00290688
65 2 4.72342 11.3874 5.46796 -0.0224595 -0.0118063 0.00535867
66 2 3.90322 12.7617 7.45366 -0.00127233 0.00409155 -0.011781
67 1 11.9675 10.7092 7.9524 0.000285729 -0.00180697 -0.00279916
68 2 12.0843 10.9552 7.0195 0.0036107 0.0447604 0.013416
69 2 2.97212 10.1882 8.13531 -0.00896064 0.00894679 -0.00462798
70 1 7.94773 5.34688 4.62101 -0.00689078 0.00586744 -0.000909674
71 2 7.95636 4.46682 5.02275 0.0119721 0.0142725 -0.00846331
72 2 7.37447 5.84817 5.24185 0.0107561 -0.0159918 0.0200876
73 1 10.4403 8.51095 7.11935 0.00098637 -0.000398342 -0.000836387
74 2 10.6519 7.79255 7.74297 0.00664962 -0.0140083 0.0274465
75 2 10.8758 9.33371 7.5331 0.0102902 0.0159282 -0.00888704
76 1 3.7629 13.8133 10.5103 0.00361136 -0.000906713 -0.00240076
77 2 12.6854 13.7089 10.9145 -0.00255985 -0.0433806 -0.00891009
78 2 4.56516 5.55384 10.5491 -0.00109994 -0.00390438 0.0155952
79 1 4.04271 9.27923 9.2933 0.00242634 -0.00294523 0.000274145
80 2 3.64365 9.50701 10.1355 -0.000270111 -0.00342514 -0.018217
81 2 5.81514 10.2652 9.11627 -0.0116467 0.0109181 0.000486393
82 1 6.92697 7.74107 11.2471 0.00110044 0.00230254 -0.00468613
83 2 6.07182 7.26181 11.1943 0.00962771 -0.00128958 -0.0132597
84 2 6.74994 8.60821 10.7809 0.00127364 0.0296921 -0.00142625
85 1 11.3447 13.4157 2.17621 0.00187036 0.00676798 -0.00390756
86 2 11.052 4.37409 2.65179 0.00738663 0.0157421 -0.00953813
87 2 4.44314 13.5969 11.2049 -0.00171825 0.000182246 0.0106841
88 1 7.69035 12.9071 6.44897 -0.00163103 0.00153251 0.00365126
89 2 6.96064 12.2529 6.43795 0.0179925 -0.00115258 0.000931091
90 2 7.29497 13.5814 6.91853 -0.0019397 0.00793117 0.0103308
91 1 6.72567 6.90576 6.68178 0.00173839 0.00709928 0.00123235
92 2 5.27371 7.67635 5.98746 0.00894659 -0.0115569 0.00444281
93 2 6.54699 6.3773 7.45754 -0.01614 -0.00279223 0.0207482
94 1 3.57124 13.6135 7.68022 -0.00471209 -0.0112088 -0.000208098
95 2 3.55036 13.6508 8.68475 0.00249497 -0.00737975 0.000572438
96 2 3.78556 4.86716 6.07212 0.0314675 -0.0155748 -0.0030007
ITEM: TIMESTEP
3
ITEM: NUMBER OF ATOMS
96
ITEM: BOX BOUNDS pp pp pp
2.9236100000000000e+00 1.2773600000000000e+01
4.0306300000000004e+00 1.3880599999999999e+01
2.1372399999999998e+00 1.1987200000000000e+01
ITEM: ATOMS id type x y z vx vy vz
1 1 5.23544 13.8219 2.94921 0.0021791 0.000725583 0.00358324
2 2 5.2652 12.8852 3.25433 -0.0139693 0.0151018 -0.0100991
3 2 11.2865 12.8433 2.94644 -0.00104732 -0.0262076 0.0170178
4 1 12.5085 9.67384 11.7506 -0.00208875 -0.00207932 -0.00774251
5 2 11.5083 9.93087 11.502 0.00542754 0.00251613 0.000197245
6 2 12.4096 8.75015 2.1934 -0.00482889 -0.012902 0.0174715
7 1 3.00552 7.28296 2.93689 -0.00373697 0.00564503 0.00150162
8 2 11.9234 7.05649 3.21753 0.00811047 0.0127587 0.0538073
9 2 8.81395 8.95179 7.17363 0.00411035 0.00955594 -0.0233397
10 1 7.87506 9.28785 6.9456 -0.00728584 -0.00477902 -0.000866705
11 2 7.287 7.78043 6.87715 -0.0212161 -0.0388141 -0.0328129
12 2 7.44582 9.60187 7.82084 0.00495772 -0.00974112 -0.00151618
13 1 6.64021 9.28368 3.84053 -0.000636401 -0.000566579 -0.00401331
14 2 6.01293 8.70574 4.29348 -0.00219567 -0.027579 0.0291043
15 2 6.92999 8.66036 3.09464 -0.0155605 -0.0136878 -0.000676327
16 1 9.65346 7.29214 10.5405 0.000530334 -0.00525184 -0.000687632
17 2 9.88988 7.01804 11.4794 -0.00383317 0.00178574 0.00644139
18 2 8.65744 7.15499 10.6574 0.00823769 -0.00507347 0.007138
19 1 4.56013 6.561 10.5555 0.00613687 -0.00318819 0.00216097
20 2 3.73829 6.77021 11.0236 0.00372962 -0.0144996 0.00549283
21 2 4.46997 8.48167 9.52836 -0.0136927 0.0216554 0.00804239
22 1 9.90748 9.82783 11.2363 -0.00153457 0.000165888 0.000679749
23 2 9.53125 9.88308 2.29387 0.0152217 -0.002189 -0.0213779
24 2 9.7538 8.87072 10.8931 -0.0174173 -0.0244038 0.00295116
25 1 4.4493 7.93428 5.56559 -0.00337042 -0.00332424 -0.00865026
26 2 3.87842 8.31537 6.2285 -0.00716453 0.0105953 -0.0201725
27 2 3.85588 6.25041 5.42012 0.013651 -0.0141922 0.0096216
28 1 10.0019 7.03699 3.63336 0.00247605 -0.00276622 0.00939761
29 2 9.28259 6.47605 3.95656 0.0116095 0.0154844 -0.0175625
30 2 9.63969 7.97417 3.85955 -0.00829331 0.0159237 -0.023591
31 1 11.5052 11.1824 5.26498 -0.000501328 0.0020352 0.00229679
32 2 11.324 12.1435 5.21908 -0.00499836 0.0149471 0.019161
33 2 12.3772 11.2144 4.76816 -0.00317428 0.000764155 -0.00958882
34 1 7.53802 4.37008 10.8722 -0.00167768 0.00938768 -0.00472599
35 2 7.98139 13.343 10.9365 0.0280021 -0.0155665 0.0146643
36 2 7.0208 4.57253 11.6473 -0.00724035 -0.0140092 -0.0138919
37 1 8.53771 11.9332 10.0703 0.00277203 -0.00439383 0.00337147
38 2 9.1017 12.4618 9.39404 -0.0232899 0.0212474 -0.00214538
39 2 9.16306 11.857 10.7748 -0.0200478 0.0376483 0.0116917
40 1 11.0166 4.09603 4.90855 -0.0019764 0.00222979 -0.00391
41 2 11.7718 4.45205 5.40974 -0.00564717 0.00164621 0.0225676
42 2 10.3326 4.75649 4.79081 0.00874772 0.00468398 0.00788371
43 1 3.5784 5.31971 5.23651 -0.000385917 0.0032513 -0.00116471
44 2 3.36053 7.69689 3.71564 -0.00324588 -0.000674653 -0.00430961
45 2 4.51739 4.33966 3.50566 -0.00610354 0.0221383 0.00956833
46 1 10.0944 13.4729 8.00194 1.30156e-05 -0.00178593 0.00666998
47 2 9.4156 13.1673 7.34664 0.0363105 -0.0204617 0.0031865
48 2 10.8121 12.8734 7.72275 0.0275851 0.029225 0.00126964
49 1 10.9905 6.17265 8.4746 0.00682228 -0.000265324 0.00484747
50 2 10.8211 5.18413 8.33668 -0.00597236 0.012082 -0.00968154
51 2 10.834 6.38523 9.40562 0.001384 0.0217645 -0.0089618
52 1 9.41932 9.6949 4.0739 0.00795811 -0.00664741 0.00501225
53 2 10.0886 9.98489 4.76543 0.00407734 0.0327742 0.00478881
54 2 8.6242 9.51824 4.54809 -0.0147585 0.0136481 0.0254786
55 1 4.48895 11.1175 3.74462 -0.00181748 -0.00530154 0.00249984
56 2 5.26245 10.5802 3.56888 -0.0128875 0.0135518 -0.027375
57 2 3.79844 10.7358 3.18983 -0.00378449 -0.0139927 -0.00253027
58 1 6.74718 9.9546 9.30506 -0.000146994 0.00487204 0.0017686
59 2 5.45232 10.4407 6.45944 -0.019219 0.00587102 0.00461637
60 2 7.27474 10.7941 9.58385 -0.0023767 0.0224838 0.00621592
61 1 6.20248 4.69518 8.24993 -0.00610536 0.00262439 -0.00386406
62 2 6.55473 4.50318 9.15426 -0.0199113 -0.000530317 -0.0056277
63 2 5.22843 4.69614 8.40476 -0.00277245 -0.018597 -0.0183409
64 1 4.96422 11.271 6.3839 0.00499627 -0.00425987 -0.00236654
65 2 4.71209 11.3813 5.46983 -0.022862 -0.012581 0.00207246
66 2 3.90301 12.7629 7.44763 0.00057884 0.000187664 -0.0123358
67 1 11.9678 10.7082 7.95099 0.000563703 -0.00210061 -0.00284696
68 2 12.0855 10.9779 7.0257 0.0013345 0.0459307 0.0112596
69 2 2.9663 10.1934 8.13351 -0.0138235 0.0114669 -0.00267983
70 1 7.94428 5.34981 4.62058 -0.00691764 0.00587194 -0.00080772
71 2 7.96253 4.47377 5.0184 0.0127649 0.0130569 -0.00884179
72 2 7.38012 5.84044 5.25167 0.0116268 -0.0146759 0.0192685
73 1 10.4408 8.51085 7.11896 0.00111309 -2.99669e-05 -0.000636449
74 2 10.6551 7.78471 7.75681 0.00573921 -0.0162978 0.027085
75 2 10.8808 9.34138 7.52807 0.00948702 0.0141879 -0.0113306
76 1 3.76469 13.8129 10.5091 0.00351289 -0.000964352 -0.00244087
77 2 12.6853 13.6872 10.9102 0.00243667 -0.0433737 -0.00822368
78 2 4.56451 5.55286 10.5569 -0.00125944 -0.000145547 0.0153343
79 1 4.04395 9.27778 9.2934 0.00251932 -0.00279577 6.78927e-05
80 2 3.64263 9.50603 10.1271 -0.00419418 -0.00013226 -0.0144971
81 2 5.81033 10.2701 9.11682 -0.00717152 0.00851499 0.00178141
82 1 6.92751 7.7423 11.2448 0.0010643 0.00269881 -0.00471648
83 2 6.07649 7.26085 11.1875 0.00892269 -0.00251029 -0.0139348
84 2 6.75104 8.62208 10.7803 0.00314663 0.0251179 -0.000613072
85 1 11.3455 13.4192 2.17428 0.00166868 0.00701259 -0.00373168
86 2 11.0561 4.38161 2.6462 0.00919152 0.0137989 -0.012742
87 2 4.44168 13.597 11.2107 -0.00417595 0.000492355 0.0126028
88 1 7.68955 12.9078 6.4507 -0.00155039 0.000998716 0.00328934
89 2 6.97011 12.2522 6.43814 0.0194686 -0.00174933 -9.74636e-05
90 2 7.29317 13.5877 6.92523 -0.00506773 0.0164398 0.0161053
91 1 6.72658 6.90941 6.68233 0.00185781 0.00737705 0.00100371
92 2 5.27931 7.67019 5.99061 0.01265 -0.0128241 0.00787479
93 2 6.53924 6.37576 7.46861 -0.0146634 -0.00289849 0.0228868
94 1 3.56886 13.608 7.68019 -0.00480405 -0.0108881 8.26198e-05
95 2 3.55161 13.6468 8.68379 0.00248915 -0.00870123 -0.00430653
96 2 3.80116 4.85897 6.07073 0.0307156 -0.0169913 -0.00305536
ITEM: TIMESTEP
4
ITEM: NUMBER OF ATOMS
96
ITEM: BOX BOUNDS pp pp pp
2.9236100000000000e+00 1.2773600000000000e+01
4.0306300000000004e+00 1.3880599999999999e+01
2.1372399999999998e+00 1.1987200000000000e+01
ITEM: ATOMS id type x y z vx vy vz
1 1 5.23649 13.8222 2.95102 0.00201378 0.000603427 0.00363993
2 2 5.25805 12.8934 3.24903 -0.0146538 0.0172809 -0.0108132
3 2 11.2863 12.8301 2.95456 0.000156275 -0.0254297 0.0143601
4 1 12.5074 9.67289 11.7467 -0.00255207 -0.00176457 -0.00785462
5 2 11.5123 9.93215 11.5022 0.0101545 0.00250706 0.000607468
6 2 12.4079 8.7428 2.20252 -0.00214581 -0.0158168 0.0187111
7 1 3.00356 7.28576 2.93763 -0.00415177 0.00554056 0.0014669
8 2 11.9282 7.06297 3.24427 0.0109315 0.0129961 0.0527704
9 2 8.81592 8.95692 7.16185 0.0036789 0.0108684 -0.0237182
10 1 7.87142 9.28544 6.94519 -0.0072724 -0.00484625 -0.000781528
11 2 7.27573 7.76021 6.86114 -0.0229499 -0.0408673 -0.0307252
12 2 7.44862 9.5968 7.81998 0.0062175 -0.0105064 -0.00181208
13 1 6.6399 9.28327 3.83844 -0.000663578 -0.0011264 -0.00432989
14 2 6.01183 8.69244 4.30844 -0.00140182 -0.0247472 0.0301368
15 2 6.92192 8.65488 3.09517 -0.016659 -0.00815649 0.00275423
16 1 9.65364 7.28943 10.5403 0.000180306 -0.00559329 -9.80208e-05
17 2 9.88868 7.01926 11.4819 -0.000870777 0.00301997 0.00358262
18 2 8.66215 7.15297 10.6599 0.0102364 -0.00307322 0.00285762
19 1 4.56318 6.55935 10.5566 0.00606097 -0.00341356 0.00207283
20 2 3.74041 6.7633 11.0267 0.0047682 -0.0129382 0.00691852
21 2 4.46406 8.49074 9.53223 -0.00930737 0.0135658 0.00762072
22 1 9.90675 9.82796 11.2366 -0.00140926 0.000307677 0.000605842
23 2 9.53897 9.88172 2.28302 0.0152699 -0.0030928 -0.0211211
24 2 9.74506 8.85886 10.8947 -0.0173541 -0.0224419 0.00355772
25 1 4.44756 7.93263 5.56118 -0.00353837 -0.00330414 -0.00895864
26 2 3.87489 8.32077 6.21893 -0.00681829 0.0109074 -0.0181597
27 2 3.86258 6.24353 5.4244 0.0131903 -0.0129367 0.00751547
28 1 10.0031 7.0357 3.63808 0.00228415 -0.00232871 0.00944092
29 2 9.28834 6.48297 3.94777 0.0106415 0.0116348 -0.0172216
30 2 9.63685 7.98114 3.84716 -0.00300735 0.0118012 -0.025827
31 1 11.5051 11.1835 5.26606 4.45303e-05 0.00231864 0.00201179
32 2 11.3204 12.1508 5.22912 -0.00900513 0.0138437 0.0209164
33 2 12.3746 11.2137 4.76408 -0.00705485 -0.00354349 -0.00669194
34 1 7.53718 4.37483 10.8698 -0.00161906 0.00952952 -0.00495233
35 2 7.99477 13.3354 10.9441 0.0248068 -0.0134176 0.0158036
36 2 7.01709 4.56474 11.6408 -0.00771408 -0.0170004 -0.011846
37 1 8.53916 11.9311 10.0719 0.00298427 -0.00389428 0.00296095
38 2 9.08888 12.4715 9.39375 -0.0277355 0.0174072 0.00102032
39 2 9.15361 11.8748 10.7812 -0.0173028 0.0336516 0.0143556
40 1 11.0156 4.09709 4.90658 -0.00201127 0.00198445 -0.00396234
41 2 11.7686 4.45375 5.42062 -0.0072778 0.0049185 0.0207403
42 2 10.3374 4.75932 4.79518 0.0101346 0.00676687 0.00951726
43 1 3.57824 5.32132 5.23598 -0.000257042 0.00314549 -0.000913517
44 2 3.35943 7.69653 3.71418 -0.000692556 -0.00058996 -0.00139889
45 2 4.51493 4.35076 3.51022 -0.0033092 0.0219995 0.00840449
46 1 10.0944 13.4719 8.0052 6.30369e-06 -0.0022064 0.0064234
47 2 9.43377 13.1579 7.34887 0.0358419 -0.0172965 0.00532394
48 2 10.8261 12.8885 7.72408 0.0282754 0.0311109 0.00409676
49 1 10.9939 6.17248 8.47699 0.00697271 -0.000396582 0.00467972
50 2 10.818 5.19127 8.33214 -0.00652798 0.0160608 -0.00829906
51 2 10.8343 6.39584 9.40108 -0.000321911 0.0205349 -0.00882295
52 1 9.42339 9.69158 4.07642 0.00829565 -0.00664008 0.00514712
53 2 10.0901 10.0012 4.76724 0.00160012 0.0324301 0.00218178
54 2 8.61557 9.52523 4.5615 -0.0187301 0.0145022 0.0274575
55 1 4.48799 11.1149 3.74584 -0.0020288 -0.00507529 0.0023629
56 2 5.2569 10.5863 3.55521 -0.00882253 0.0105969 -0.0272562
57 2 3.79612 10.7284 3.1881 -0.00536833 -0.0152778 -0.0041545
58 1 6.74709 9.95714 9.30596 -0.000228948 0.00534236 0.00182882
59 2 5.4426 10.4438 6.46135 -0.0192646 0.00575523 0.00304918
60 2 7.2725 10.8037 9.5864 -0.00674447 0.0155025 0.00383711
61 1 6.19938 4.69652 8.24809 -0.00627479 0.00270367 -0.00354007
62 2 6.54492 4.50321 9.15081 -0.0191472 0.000603674 -0.00784759
63 2 5.22779 4.68662 8.39511 -0.000159682 -0.0194137 -0.0202317
64 1 4.96675 11.2689 6.38285 0.00509127 -0.00416334 -0.00182625
65 2 4.70056 11.3748 5.47003 -0.0232361 -0.0134647 -0.00121425
66 2 3.9038 12.7619 7.44133 0.00263344 -0.00415002 -0.0128264
67 1 11.9681 10.7071 7.94955 0.000738513 -0.00234477 -0.00288791
68 2 12.0856 11.0011 7.03076 -0.000628109 0.0468314 0.00902311
69 2 2.9583 10.1997 8.13264 -0.0174716 0.0133069 -0.000877772
70 1 7.94082 5.35275 4.6202 -0.00692596 0.00588767 -0.000736306
71 2 7.96912 4.47988 5.01391 0.0136579 0.0109928 -0.0090677
72 2 7.3861 5.83349 5.26112 0.0120767 -0.0128647 0.01862
73 1 10.4414 8.51092 7.11871 0.00128732 0.000272023 -0.000320595
74 2 10.6577 7.77625 7.77006 0.00440514 -0.0165299 0.0251337
75 2 10.8853 9.34789 7.52177 0.00834739 0.0113922 -0.0139453
76 1 3.76642 13.8124 10.5078 0.00340633 -0.00105364 -0.00243453
77 2 12.6878 13.6655 10.9063 0.00746408 -0.0430493 -0.00774913
78 2 4.5639 5.5537 10.5644 -0.000978947 0.00328058 0.0148126
79 1 4.04523 9.27643 9.29337 0.00257335 -0.00253527 -0.000226766