ITEM: TIMESTEP
0
ITEM: NUMBER OF ATOMS
96
ITEM: BOX BOUNDS pp pp pp
2.9236100000000000e+00 1.2773600000000000e+01
4.0306300000000004e+00 1.3880599999999999e+01
2.1372399999999998e+00 1.1987200000000000e+01
ITEM: ATOMS id type x y z vx vy vz
1 1 5.228 13.8149 2.93682 0.0015787 0.00351285 0.00372772
2 2 5.30619 12.8842 3.26687 -0.00982245 -0.0140812 0.00398369
3 2 11.308 12.8426 2.93694 -0.0114841 0.0351698 -0.0189459
4 1 12.5107 9.68625 11.7752 0.000368116 -0.00487936 -0.00627569
5 2 11.545 9.92665 11.5081 -0.0224531 -0.000676757 -0.00356643
6 2 12.4597 8.73401 2.1572 -0.0228326 0.0208237 0.00341331
7 1 3.01546 7.26247 2.93058 -0.0025469 0.00585374 0.00219108
8 2 11.9297 7.02438 3.04425 -0.00849026 0.00455572 0.0388949
9 2 8.80066 8.93711 7.246 0.0019288 -0.00118008 -0.0166278
10 1 7.89944 9.30188 6.9504 -0.00638056 -0.00284602 -0.00203028
11 2 7.29487 7.834 6.98087 0.0221146 0.015282 -0.0181488
12 2 7.44448 9.62652 7.81581 -0.00392759 -0.00473426 0.00603489
13 1 6.64499 9.28397 3.84975 -0.00238059 -0.000793404 -0.00161732
14 2 5.9779 8.77973 4.23812 0.0293323 -0.00534627 -0.000387128
15 2 6.9727 8.75225 3.12309 -0.0103578 -0.0293231 -0.00770315
16 1 9.64733 7.30619 10.5484 0.00262939 -0.00292912 -0.00306973
17 2 9.92919 7.02531 11.4356 -0.0148893 -0.00429037 0.0125855
18 2 8.66395 7.19675 10.593 -0.009992 -0.0171906 0.0241784
19 1 4.53865 6.57043 10.5462 0.00593592 -0.00274016 0.00331619
20 2 3.73575 6.82567 11.0248 -0.00169302 -0.0141046 -0.00650962
21 2 4.51899 8.39423 9.48556 -0.00236261 0.00868551 0.0170965
22 1 9.91368 9.83225 11.2366 -0.00187123 -0.00329132 -0.00134844
23 2 9.49942 9.87166 2.32336 0.000226886 0.00959409 0.00995161
24 2 9.80522 8.93975 10.8818 -0.0102054 -0.00686494 0.00584957
25 1 4.45639 7.94678 5.59142 -0.000536566 -0.00384287 -0.00641154
26 2 3.90342 8.2832 6.31851 -0.0079227 0.00871879 -0.027533
27 2 3.80102 6.28904 5.364 0.0173059 -0.00273745 0.0203399
28 1 9.98915 7.04705 3.6022 0.00487463 -0.00160965 0.0083628
29 2 9.27439 6.41453 3.99776 -0.0136716 0.0113666 -0.0014637
30 2 9.71744 7.89661 3.91669 -0.0297929 0.0169244 -0.0124259
31 1 11.5129 11.1765 5.25435 -0.0032707 0.00184278 0.00335061
32 2 11.2853 12.1088 5.17427 0.0254887 0.000620391 0.00768162
33 2 12.3638 11.1595 4.82459 0.00203319 0.0275624 -0.0175142
34 1 7.54134 4.34513 10.8864 0.000264337 0.0039331 -0.00365628
35 2 7.88762 13.3384 10.9118 0.0192409 0.0313288 -0.00152503
36 2 7.04951 4.57858 11.7054 -0.0111131 0.0113485 -0.0149264
37 1 8.53303 11.9527 10.056 -0.000421042 -0.00599728 0.00386838
38 2 9.12848 12.3563 9.42469 0.0031694 0.0318117 -0.00731651
39 2 9.22713 11.6825 10.7386 -0.00635048 0.0585825 0.0164631
40 1 11.021 4.08549 4.92064 -0.000222959 0.00367795 -0.00288632
41 2 11.7892 4.49587 5.32292 -0.00770097 -0.0267485 0.0249037
42 2 10.3305 4.75522 4.78528 -0.00811908 -0.00167653 -0.00421032
43 1 3.58098 5.30964 5.24158 -0.00102911 0.0020968 -0.0013504
44 2 3.36995 7.68363 3.7492 0.00476833 0.0119039 -0.0101725
45 2 4.53924 4.28281 3.48163 0.00120583 0.00568575 -0.00123166
46 1 10.0921 13.4741 7.9751 0.00153792 0.000831126 0.00848895
47 2 9.31345 13.2786 7.37715 0.0175009 -0.0402098 -0.0203459
48 2 10.7267 12.7881 7.74395 0.0216013 0.0217618 -0.0102392
49 1 10.9679 6.17037 8.45808 0.00613012 0.00157559 0.00408596
50 2 10.839 5.19551 8.37062 -0.00447273 -0.0134763 -0.00443708
51 2 10.8127 6.31005 9.41842 0.00977703 0.0163606 0.00408752
52 1 9.39697 9.71855 4.05533 0.00522923 -0.00680408 0.00582257
53 2 10.0598 9.87816 4.73801 0.0086552 0.0259551 0.00577131
54 2 8.59052 9.47184 4.50768 0.0309576 0.0125743 -0.00130566
55 1 4.49563 11.1377 3.73477 -0.00258456 -0.00578724 0.00310725
56 2 5.31014 10.5208 3.66371 -0.00198205 0.0129069 -0.0257627
57 2 3.79736 10.7602 3.17366 0.000365316 0.000296471 0.0101615
58 1 6.74719 9.9392 9.29889 -1.66681e-05 0.00524934 0.00192807
59 2 5.49632 10.4571 6.42699 -0.00309432 -0.0196195 0.0116965
60 2 7.25885 10.6846 9.5509 0.00157057 0.0230219 0.00689032
61 1 6.22192 4.68696 8.26781 -0.005335 0.00205457 -0.00602543
62 2 6.625 4.51867 9.14081 -0.0195723 -0.0073593 0.0101359
63 2 5.27567 4.74796 8.44739 -0.0201492 -0.0104951 -0.00779451
64 1 4.94927 11.2844 6.39773 0.0033763 -0.00307157 -0.00492128
65 2 4.78751 11.4184 5.43399 -0.0201425 -0.00973778 0.0119438
66 2 3.9149 12.7363 7.48411 -0.0036949 0.00540267 -0.00847205
67 1 11.9701 10.7118 7.95961 -0.00190653 -4.92114e-05 -0.00170214
68 2 12.0484 10.8338 6.97094 0.0205534 0.0360819 0.0144377
69 2 2.94743 10.1893 8.16995 0.0225887 -0.00843419 -0.0190549
70 1 7.96785 5.32907 4.62514 -0.00648094 0.00604207 -0.00188957
71 2 7.92483 4.43274 5.04215 0.0098408 0.00405175 -0.00428929
72 2 7.35863 5.89511 5.17247 -0.00190035 -0.0118169 0.0259751
73 1 10.4373 8.51615 7.12122 0.00127581 -0.00297364 3.83966e-05
74 2 10.6324 7.77907 7.68509 0.00487471 0.0267249 0.00754359
75 2 10.8474 9.29395 7.54675 0.00591971 0.00559481 -0.00341329
76 1 3.75175 13.816 10.5162 0.00358379 -0.000983029 -0.00138915
77 2 12.7252 13.8333 10.9523 -0.017996 -0.0384005 -0.0177048
78 2 4.55905 5.59307 10.5051 0.00679848 -0.0173412 0.0126012
79 1 4.03691 9.28688 9.2933 0.0013469 -0.00161864 -0.00096181
80 2 3.62875 9.5289 10.192 0.0045765 -0.00588558 -0.010387
81 2 5.86043 10.2225 9.12083 -0.00835093 0.0136654 -0.00156217
82 1 6.92306 7.73526 11.2617 0.00159052 0.00230623 -0.00534254
83 2 6.04473 7.25478 11.2305 0.0056811 0.00526229 -0.0113961
84 2 6.75969 8.51435 10.7763 -0.00632428 0.0224082 0.0096516
85 1 11.3376 13.3993 2.18634 0.00279549 0.00411916 -0.00267862
86 2 11.0356 4.35275 2.64927 0.0043754 -0.0027506 0.0103007
87 2 4.43117 13.5973 11.1969 0.00753252 -0.000161218 -0.00613472
88 1 7.69468 12.8977 6.43517 -0.000741752 0.00418013 0.00508693
89 2 6.93443 12.2599 6.42499 -0.00280653 -0.00576794 0.00740439
90 2 7.27804 13.6289 6.93477 0.00789685 -0.0287212 -0.0141112
91 1 6.72408 6.89111 6.6758 -0.0010837 0.00195167 0.0026093
92 2 5.29864 7.69261 6.00858 -0.0241242 0.000877094 -0.0162157
93 2 6.60117 6.36669 7.43584 -0.0183421 0.0129116 -0.00838951
94 1 3.58518 13.6484 7.68291 -0.00479464 -0.0114673 -0.00116632
95 2 3.54143 13.6653 8.64698 0.00409197 -0.00383098 0.0183697
96 2 3.69177 4.89708 6.09856 0.0296573 -0.00514015 -0.0171443
ITEM: TIMESTEP
1
ITEM: NUMBER OF ATOMS
96
ITEM: BOX BOUNDS pp pp pp
2.9236100000000000e+00 1.2773600000000000e+01
4.0306300000000004e+00 1.3880599999999999e+01
2.1372399999999998e+00 1.1987200000000000e+01
ITEM: ATOMS id type x y z vx vy vz
1 1 5.22885 13.8166 2.93866 0.00180928 0.00310577 0.00362404
2 2 5.30118 12.8778 3.2684 -0.0102456 -0.0110037 0.00197474
3 2 11.3025 12.8591 2.92821 -0.0103395 0.0286321 -0.0145796
4 1 12.5109 9.68387 11.772 0.000231126 -0.00459272 -0.00647581
5 2 11.5342 9.92644 11.5064 -0.0202444 -0.000127813 -0.00312424
6 2 12.4488 8.74379 2.15926 -0.0207637 0.0175936 0.00501368
7 1 3.01421 7.26541 2.93164 -0.0024981 0.00590211 0.00206375
8 2 11.9256 7.02697 3.0648 -0.00766398 0.0058824 0.04307
9 2 8.80184 8.93686 7.23729 0.00274845 0.000254812 -0.0181135
10 1 7.8962 9.30036 6.94944 -0.00658634 -0.00323162 -0.0018159
11 2 7.30416 7.83934 6.97056 0.0148625 0.00597334 -0.0228678
12 2 7.44277 9.62403 7.81841 -0.00282746 -0.00526543 0.00441674
13 1 6.64386 9.28368 3.84892 -0.00211669 -0.000400849 -0.00174802
14 2 5.99129 8.77576 4.23886 0.0237053 -0.0107096 0.00381967
15 2 6.96749 8.73711 3.1186 -0.010535 -0.0306665 -0.00974283
16 1 9.64862 7.30467 10.5469 0.00249387 -0.00318471 -0.00301079
17 2 9.92172 7.02317 11.4424 -0.0147378 -0.00413321 0.0140453
18 2 8.65916 7.18836 10.6051 -0.00870419 -0.0161955 0.0239017
19 1 4.54164 6.56911 10.5478 0.00602948 -0.00258602 0.0031091
20 2 3.73505 6.81833 11.022 -0.00110202 -0.0151486 -0.00473175
21 2 4.5164 8.40067 9.49384 -0.00769051 0.0165755 0.0158779
22 1 9.91275 9.83077 11.236 -0.00186143 -0.0026293 -0.0009562
23 2 9.50018 9.87601 2.32709 0.00291504 0.00776739 0.00462608
24 2 9.79974 8.93505 10.8844 -0.0117134 -0.0117888 0.00464078
25 1 4.45604 7.94487 5.58819 -0.000909127 -0.0037804 -0.00656166
26 2 3.89965 8.28749 6.30452 -0.00731196 0.00853213 -0.0280718
27 2 3.80962 6.28687 5.37406 0.0170285 -0.00585567 0.0197089
28 1 9.99152 7.04607 3.60641 0.00457438 -0.00224269 0.00848656
29 2 9.26884 6.42104 3.99614 -0.00844336 0.014459 -0.00500166
30 2 9.70262 7.90631 3.91054 -0.029111 0.0211557 -0.0125069
31 1 11.5113 11.1774 5.25604 -0.00313302 0.00172977 0.00336656
32 2 11.2973 12.1098 5.17834 0.0222445 0.00345039 0.00873711
33 2 12.3655 11.1728 4.81556 0.00450419 0.0251949 -0.0183019
34 1 7.54138 4.34733 10.8846 -0.000119853 0.004912 -0.00370856
35 2 7.89784 13.3518 10.9116 0.0218446 0.0218109 0.000840019
36 2 7.04425 4.58332 11.6976 -0.00996773 0.00756267 -0.0162671
37 1 8.53294 11.9497 10.058 9.17431e-05 -0.0060582 0.00415812
38 2 9.12985 12.3727 9.4202 0.00171965 0.0332041 -0.00993029
39 2 9.22254 11.7115 10.746 -0.0116402 0.0570036 0.0134016
40 1 11.0208 4.08729 4.91916 -0.000537352 0.00351835 -0.0030512
41 2 11.7856 4.48336 5.33539 -0.0065029 -0.0230566 0.0250445
42 2 10.327 4.75441 4.7835 -0.00586951 -0.00148332 -0.0028025
43 1 3.58048 5.31075 5.24089 -0.000955552 0.00235776 -0.00142814
44 2 3.37148 7.68884 3.74392 0.00153144 0.00901769 -0.0108369
45 2 4.539 4.28659 3.48181 -0.00207656 0.00938157 0.00191042
46 1 10.0928 13.4745 7.97931 0.00126627 0.000571317 0.00832981
47 2 9.32312 13.2588 7.36756 0.0212656 -0.038796 -0.017655
48 2 10.7376 12.799 7.73889 0.0221611 0.0219757 -0.00978913
49 1 10.971 6.17111 8.46019 0.00622239 0.00136701 0.00434635
50 2 10.8367 5.18886 8.36766 -0.00469317 -0.0124095 -0.00709646
51 2 10.8174 6.31893 9.41993 0.00890823 0.0188719 0.00181072
52 1 9.3996 9.71514 4.05822 0.00537667 -0.00682992 0.00569689
53 2 10.0643 9.89156 4.74131 0.00915281 0.0275847 0.00726318
54 2 8.60532 9.47837 4.5075 0.0271804 0.0132841 0.0011673
55 1 4.49441 11.1348 3.7363 -0.00230995 -0.00589891 0.00301555
56 2 5.30765 10.528 3.65063 -0.00757026 0.0155841 -0.0264588
57 2 3.79789 10.7599 3.17857 0.00143438 -0.00159211 0.00923273
58 1 6.74719 9.94168 9.29983 2.11129e-05 0.00472991 0.00184996
59 2 5.49411 10.4483 6.43289 -0.00589973 -0.0152785 0.0116629
60 2 7.26048 10.6978 9.55489 0.00449455 0.0289121 0.00879618
61 1 6.21927 4.68801 8.26482 -0.00529708 0.00214686 -0.00588317
62 2 6.61522 4.5151 9.14586 -0.0196316 -0.00682433 0.00958132
63 2 5.26555 4.7424 8.44336 -0.0197667 -0.011773 -0.00850085
64 1 4.95102 11.2828 6.39529 0.00364092 -0.00331222 -0.00480697
65 2 4.7773 11.4136 5.44037 -0.0206424 -0.00970719 0.013107
66 2 3.91284 12.7398 7.47971 -0.00437118 0.00809504 -0.00908517
67 1 11.9692 10.7117 7.95868 -0.00164624 -0.000259255 -0.00201005
68 2 12.058 10.8522 6.97867 0.0177986 0.0375149 0.0161182
69 2 2.95802 10.1855 8.16106 0.0190996 -0.00638434 -0.0164925
70 1 7.96459 5.33208 4.62423 -0.00655721 0.00600458 -0.00172483
71 2 7.92975 4.43558 5.03986 0.00989129 0.00720519 -0.00495649
72 2 7.35834 5.88866 5.18528 0.000730947 -0.0137899 0.0251709
73 1 10.4379 8.51474 7.12117 0.0011413 -0.0026291 -0.000235817
74 2 10.635 7.79079 7.68979 0.00555021 0.0195693 0.0115353
75 2 10.8508 9.29758 7.54519 0.00763815 0.00887959 -0.00305938
76 1 3.75357 13.8155 10.5154 0.0036881 -0.000946853 -0.00161247
77 2 12.7161 13.8138 10.944 -0.0179955 -0.0395899 -0.0157304
78 2 4.56197 5.58425 10.5116 0.00494063 -0.0173718 0.013475
79 1 4.03763 9.28597 9.29294 0.00154763 -0.00201503 -0.000515287
80 2 3.63144 9.52548 10.1855 0.00587836 -0.0074782 -0.0150405
81 2 5.85498 10.2297 9.11992 -0.0128503 0.0147045 -0.00197998
82 1 6.92383 7.73633 11.2591 0.00147687 0.00202971 -0.00512026
83 2 6.04805 7.25726 11.2248 0.00742324 0.00453973 -0.0115281
84 2 6.75667 8.52694 10.7801 -0.00565474 0.0274731 0.00580855
85 1 11.339 13.4014 2.18499 0.0026456 0.00451065 -0.00280534
86 2 11.038 4.35121 2.65382 0.00515066 -0.00212573 0.00765282
87 2 4.43483 13.5972 11.1945 0.00690303 -0.000188681 -0.00320254
88 1 7.69421 12.8998 6.43772 -0.00109641 0.00404735 0.00506231
89 2 6.93401 12.2574 6.42848 0.00121699 -0.00431093 0.00649415
90 2 7.28234 13.6144 6.9277 0.00871392 -0.0277899 -0.0133536
91 1 6.72368 6.89235 6.67708 -0.000506854 0.00301412 0.00246661
92 2 5.28739 7.69262 6.00087 -0.0201207 -0.00100513 -0.0141256
93 2 6.59194 6.37231 7.4328 -0.0185311 0.00949086 -0.00338635
94 1 3.58281 13.6426 7.68231 -0.00470014 -0.0116482 -0.00120143
95 2 3.54332 13.6634 8.65635 0.00354263 -0.00377879 0.0183276
96 2 3.7068 4.89429 6.09067 0.0304147 -0.00629743 -0.0142575
ITEM: TIMESTEP
2
ITEM: NUMBER OF ATOMS
96
ITEM: BOX BOUNDS pp pp pp
2.9236100000000000e+00 1.2773600000000000e+01
4.0306300000000004e+00 1.3880599999999999e+01
2.1372399999999998e+00 1.1987200000000000e+01
ITEM: ATOMS id type x y z vx vy vz
1 1 5.22981 13.818 2.94044 0.00201798 0.002648 0.00354463
2 2 5.29594 12.8732 3.26884 -0.0107493 -0.00697511 -0.000286198
3 2 11.2977 12.8712 2.92236 -0.0087672 0.0178473 -0.00766041
4 1 12.5109 9.68166 11.7687 -8.19104e-07 -0.00422605 -0.00670044
5 2 11.5248 9.92652 11.505 -0.0172136 0.000466092 -0.00260383
6 2 12.4389 8.7516 2.16221 -0.0184265 0.0131079 0.00695245
7 1 3.01296 7.26837 2.93264 -0.0025212 0.005924 0.00194659
8 2 11.922 7.03026 3.08732 -0.00608272 0.00729477 0.0467119
9 2 8.80341 8.93736 7.22789 0.00343232 0.00179552 -0.019401
10 1 7.89285 9.29865 6.94858 -0.00677986 -0.00360456 -0.00161279
11 2 7.30973 7.83997 6.958 0.00740285 -0.00339985 -0.0269824
12 2 7.44165 9.62125 7.82023 -0.00161259 -0.00588568 0.00293116
13 1 6.64287 9.28357 3.848 -0.00179461 -7.47606e-05 -0.00199914
14 2 6.00161 8.76902 4.24194 0.0173821 -0.0161818 0.00876743
15 2 6.96216 8.72158 3.11335 -0.0108746 -0.0307718 -0.0107072
16 1 9.64982 7.30301 10.5454 0.00227735 -0.00347856 -0.00284724
17 2 9.91445 7.02118 11.4496 -0.0140549 -0.00367323 0.0146345
18 2 8.65525 7.18055 10.6169 -0.00658825 -0.014857 0.022799
19 1 4.54468 6.56784 10.5493 0.00610671 -0.00251815 0.00290981
20 2 3.73465 6.81052 11.0201 -0.000476891 -0.0159372 -0.00292274
21 2 4.5113 8.41081 9.50144 -0.0122135 0.0231965 0.0144245
22 1 9.91182 9.82962 11.2356 -0.0018463 -0.00198963 -0.000547782
23 2 9.50234 9.87943 2.32799 0.00571704 0.00587682 -0.00114315
24 2 9.79351 8.92796 10.8864 -0.0131659 -0.0162887 0.00364165
25 1 4.45548 7.943 5.58486 -0.00134702 -0.00370055 -0.00680546
26 2 3.89611 8.29173 6.29044 -0.00698632 0.00855943 -0.027932
27 2 3.81805 6.28318 5.38371 0.0166028 -0.00873765 0.0186839
28 1 9.99372 7.04481 3.61069 0.00422373 -0.00274298 0.00864494
29 2 9.26595 6.42899 3.99276 -0.0032148 0.0170443 -0.0083977
30 2 9.68833 7.91777 3.90418 -0.0275989 0.023845 -0.0132672
31 1 11.5098 11.1782 5.25772 -0.00288755 0.00163926 0.00332252
32 2 11.3075 12.1123 5.18301 0.0182611 0.00655848 0.0100672
33 2 12.3683 11.1847 4.80629 0.00595478 0.0221011 -0.0184445
34 1 7.54122 4.35004 10.8827 -0.000517267 0.0059256 -0.00379676
35 2 7.90946 13.3602 10.9126 0.0246331 0.0118433 0.00335877
36 2 7.03954 4.58614 11.6891 -0.00894138 0.00374372 -0.0171754
37 1 8.53312 11.9466 10.0602 0.000629928 -0.00601566 0.00432079
38 2 9.1302 12.3895 9.41476 -0.000883893 0.0334546 -0.0111352
39 2 9.21549 11.7395 10.752 -0.0160928 0.0548681 0.0108712
40 1 11.0205 4.08901 4.91759 -0.000863611 0.00333768 -0.00322371
41 2 11.7827 4.47281 5.34796 -0.00537393 -0.0189641 0.0252271
42 2 10.3246 4.75374 4.78248 -0.00330691 -0.00111933 -0.00119707
43 1 3.58002 5.312 5.24015 -0.000877197 0.00262102 -0.00149561
44 2 3.37148 7.69265 3.73836 -0.00127026 0.00633047 -0.0111633
45 2 4.53716 4.29219 3.48354 -0.00501264 0.0128822 0.00479984
46 1 10.0934 13.4747 7.98343 0.000982299 0.000259113 0.00811258
47 2 9.33472 13.2398 7.3595 0.0250555 -0.0366852 -0.0143684
48 2 10.7489 12.8101 7.73416 0.0229201 0.022497 -0.00890058
49 1 10.9741 6.17174 8.46243 0.00630967 0.00110446 0.00457853
50 2 10.8343 5.1831 8.36352 -0.00486485 -0.0100186 -0.00912718
51 2 10.8216 6.32892 9.42023 0.00795997 0.0208157 -0.000637831
52 1 9.40235 9.71172 4.06103 0.00566009 -0.00682202 0.00552922
53 2 10.069 9.90574 4.74527 0.00941273 0.0290924 0.00836673
54 2 8.6177 9.48512 4.50885 0.021467 0.0135044 0.00467867
55 1 4.49332 11.1318 3.73779 -0.00205944 -0.00594941 0.00293143
56 2 5.30257 10.5364 3.63725 -0.0121683 0.0175216 -0.0269389
57 2 3.79879 10.7586 3.18289 0.0018533 -0.00368104 0.0078393
58 1 6.74721 9.94393 9.30074 4.13964e-05 0.00434879 0.00178472
59 2 5.49042 10.4418 6.43865 -0.0088924 -0.0105814 0.0111868
60 2 7.26334 10.7135 9.5597 0.00639515 0.0330632 0.0101182
61 1 6.21662 4.68911 8.26193 -0.00532626 0.00223377 -0.00565527
62 2 6.60537 4.51185 9.15039 -0.0198324 -0.00608626 0.00812162
63 2 5.2559 4.73619 8.43889 -0.0182968 -0.0130579 -0.0095771
64 1 4.95291 11.2811 6.39292 0.00391242 -0.00356426 -0.00459293
65 2 4.76687 11.4087 5.4471 -0.0210361 -0.00985454 0.0132912
66 2 3.91053 12.7444 7.47502 -0.00466691 0.00972172 -0.0096295
67 1 11.9685 10.7115 7.9576 -0.00129962 -0.00052107 -0.00226714
68 2 12.0662 10.8713 6.98706 0.014869 0.0389865 0.0170506
69 2 2.96653 10.1829 8.15346 0.0144177 -0.00372305 -0.0139229
70 1 7.96129 5.33507 4.62342 -0.00663762 0.00596512 -0.00154718
71 2 7.93472 4.43995 5.03719 0.0100545 0.0100393 -0.00572069
72 2 7.35936 5.88132 5.19764 0.00328993 -0.0153555 0.0242135
73 1 10.4384 8.51352 7.12098 0.00102413 -0.00221397 -0.000502036
74 2 10.638 7.79864 7.69663 0.00624435 0.011625 0.0158763
75 2 10.855 9.30283 7.54369 0.00904584 0.0119078 -0.00318369
76 1 3.75544 13.8151 10.5146 0.00375 -0.000912734 -0.00182794
77 2 12.7072 13.7937 10.9366 -0.0168586 -0.0407095 -0.0139123
78 2 4.56399 5.5757 10.5186 0.00321968 -0.0162719 0.0142533
79 1 4.03846 9.28486 9.29278 0.00175071 -0.00237356 -0.000135318
80 2 3.63463 9.52142 10.177 0.00647135 -0.00837872 -0.0186325
81 2 5.84758 10.2372 9.11885 -0.0159473 0.0151957 -0.00213352
82 1 6.92454 7.73729 11.2566 0.00137553 0.00184332 -0.00493919
83 2 6.05215 7.25932 11.219 0.00875405 0.00360502 -0.0116918
84 2 6.75404 8.54182 10.7821 -0.00474402 0.0313377 0.00265449
85 1 11.3402 13.4038 2.18353 0.00250328 0.00497637 -0.00307257
86 2 11.0408 4.35062 2.65692 0.00537884 0.00148827 0.00453542
87 2 4.43807 13.5971 11.1937 0.00588163 -0.000206438 -0.000164516
88 1 7.69358 12.9017 6.44023 -0.00137323 0.00374628 0.00493294
89 2 6.93565 12.2556 6.43148 0.00531796 -0.00294134 0.00548892
90 2 7.28675 13.6011 6.92142 0.00834973 -0.0242668 -0.0109583
91 1 6.72357 6.89412 6.67827 6.91949e-05 0.0040612 0.00226332
92 2 5.27852 7.6916 5.99445 -0.0147956 -0.00315531 -0.0111637
93 2 6.58264 6.37618 7.43245 -0.0185703 0.0060467 0.00213264
94 1 3.58048 13.6368 7.68171 -0.00463542 -0.011745 -0.00113996
95 2 3.54497 13.6615 8.66531 0.0031325 -0.00399985 0.0167928
96 2 3.72218 4.89078 6.0843 0.0310641 -0.00790396 -0.0111911
ITEM: TIMESTEP
3
ITEM: NUMBER OF ATOMS
96
ITEM: BOX BOUNDS pp pp pp
2.9236100000000000e+00 1.2773600000000000e+01
4.0306300000000004e+00 1.3880599999999999e+01
2.1372399999999998e+00 1.1987200000000000e+01
ITEM: ATOMS id type x y z vx vy vz
1 1 5.23087 13.8192 2.9422 0.00218301 0.0021726 0.00349557
2 2 5.29043 12.8708 3.26811 -0.0113207 -0.00231525 -0.00264986
3 2 11.2937 12.8769 2.92055 -0.00685617 0.00406219 0.000729243
4 1 12.5109 9.67964 11.7653 -0.000316551 -0.00380196 -0.00693742
5 2 11.517 9.92691 11.5038 -0.0134781 0.00106091 -0.00203486
6 2 12.4303 8.7569 2.16621 -0.0158798 0.00775597 0.00913555
7 1 3.01169 7.27134 2.93359 -0.00262063 0.00591772 0.0018376
8 2 11.9195 7.03427 3.11151 -0.003854 0.00871664 0.0497112
9 2 8.80528 8.93866 7.21789 0.00395699 0.00339631 -0.0205012
10 1 7.88942 9.29676 6.94783 -0.00695103 -0.00394641 -0.00142539
11 2 7.31156 7.83594 6.94357 6.93552e-05 -0.0124967 -0.0302707
12 2 7.44116 9.61815 7.82134 -0.000327037 -0.00658057 0.0016281
13 1 6.64206 9.2836 3.84693 -0.00145515 0.000142458 -0.00234722
14 2 6.00867 8.75958 4.24763 0.011103 -0.0212038 0.0139952
15 2 6.95662 8.70633 3.1079 -0.0114388 -0.0295674 -0.0105207
16 1 9.6509 7.30119 10.544 0.00199286 -0.00380519 -0.00257983
17 2 9.90766 7.01949 11.457 -0.0128583 -0.00292888 0.014352
18 2 8.65257 7.1735 10.6279 -0.00384548 -0.013217 0.0208971
19 1 4.54775 6.56659 10.5507 0.00616382 -0.00253314 0.00272278
20 2 3.73457 6.80239 11.0191 0.000209337 -0.0164226 -0.00112017
21 2 4.50419 8.42386 9.50826 -0.0155955 0.0279771 0.0128508
22 1 9.9109 9.82878 11.2355 -0.00182049 -0.00139646 -0.000155574
23 2 9.5059 9.88189 2.32594 0.00844686 0.00398775 -0.00691727
24 2 9.78657 8.91876 10.888 -0.0144943 -0.0200726 0.00291326
25 1 4.45469 7.94117 5.58138 -0.0018192 -0.00361098 -0.00712551
26 2 3.89266 8.29605 6.27659 -0.00690706 0.00878578 -0.0271653
27 2 3.82623 6.27814 5.39275 0.0160642 -0.0111998 0.017309
28 1 9.99574 7.04333 3.61505 0.00384202 -0.00308506 0.00882306
29 2 9.26563 6.43808 3.98774 0.00167205 0.0188968 -0.0114653
30 2 9.67502 7.93016 3.89728 -0.0252131 0.0249026 -0.0146506
31 1 11.5084 11.179 5.25936 -0.0025404 0.00158878 0.00321632
32 2 11.3156 12.1163 5.18841 0.0137647 0.00958982 0.0116424
33 2 12.3715 11.1949 4.79712 0.00623688 0.0184071 -0.017884
34 1 7.54086 4.35326 10.8808 -0.000894791 0.00690041 -0.00392386
35 2 7.92248 13.3636 10.915 0.0272077 0.00238853 0.00594369
36 2 7.03531 4.58706 11.6804 -0.00809486 -4.72668e-05 -0.0175835
37 1 8.53357 11.9437 10.0623 0.00116267 -0.00586414 0.00435311
38 2 9.12897 12.4062 9.40906 -0.00446937 0.0326093 -0.0110447
39 2 9.20645 11.7663 10.7569 -0.0194658 0.0521914 0.00910113
40 1 11.0199 4.09063 4.91593 -0.00117936 0.00314042 -0.00339491
41 2 11.7803 4.46439 5.36062 -0.00448299 -0.0146566 0.0253248
42 2 10.3236 4.75329 4.7823 -0.000594551 -0.00053973 0.000554342
43 1 3.57961 5.31337 5.23939 -0.000793978 0.00286402 -0.00153579
44 2 3.37021 7.69517 3.73275 -0.00345675 0.00396445 -0.011007
45 2 4.53399 4.29947 3.48661 -0.00726976 0.0159899 0.00720038
46 1 10.0938 13.4747 7.98743 0.000705534 -9.92416e-05 0.00785056
47 2 9.34818 13.2221 7.35319 0.0286158 -0.0339851 -0.0106957
48 2 10.7605 12.8215 7.72999 0.023824 0.0233267 -0.00758239
49 1 10.9773 6.17222 8.46477 0.00639585 0.000807339 0.0047665
50 2 10.8318 5.17884 8.35853 -0.00500865 -0.00651546 -0.0104868
51 2 10.8253 6.33974 9.41929 0.00690628 0.0221509 -0.0030712
52 1 9.40526 9.70831 4.06375 0.00605655 -0.00679063 0.00534445
53 2 10.0737 9.92065 4.74968 0.00931984 0.0304216 0.0089535
54 2 8.62679 9.49188 4.51218 0.0142944 0.0134038 0.00895541
55 1 4.49235 11.1288 3.73923 -0.00185489 -0.00593338 0.00285302
56 2 5.29548 10.5455 3.62369 -0.0154564 0.0185714 -0.0272327
57 2 3.79974 10.7562 3.18641 0.0016185 -0.00589737 0.00604017
58 1 6.74723 9.94603 9.30162 4.19442e-05 0.00413141 0.00173731
59 2 5.48522 10.4377 6.44408 -0.0118427 -0.00589515 0.0103255
60 2 7.26687 10.7308 9.565 0.00705406 0.0351335 0.0107383
61 1 6.21394 4.69024 8.25917 -0.00541585 0.00231614 -0.00535496
62 2 6.59539 4.50901 9.15398 -0.0200973 -0.00516636 0.00590958
63 2 5.24725 4.72934 8.43379 -0.01591 -0.0143192 -0.010975
64 1 4.95494 11.2792 6.39069 0.00417981 -0.0038062 -0.00428308
65 2 4.75626 11.4037 5.45366 -0.0213772 -0.0101552 0.0125002
66 2 3.90817 12.7495 7.47008 -0.0045176 0.0101354 -0.0101463
67 1 11.9679 10.7112 7.95641 -0.000898188 -0.000822559 -0.00247084
68 2 12.0729 10.8912 6.99572 0.0118826 0.0404798 0.0171913
69 2 2.97244 10.1818 8.14714 0.00886123 -0.000633717 -0.0114087
70 1 7.95795 5.33805 4.62269 -0.00671597 0.0059278 -0.00136728
71 2 7.9398 4.44562 5.03413 0.0103393 0.0123272 -0.00651272
72 2 7.36163 5.87331 5.20949 0.00565892 -0.0164095 0.0231652
73 1 10.4389 8.51252 7.12067 0.000939479 -0.00175509 -0.000724577
74 2 10.6412 7.80241 7.70566 0.00682041 0.0036325 0.0200911
75 2 10.8599 9.30949 7.542 0.0100536 0.0143572 -0.00384228
76 1 3.75732 13.8146 10.5136 0.00376889 -0.000885974 -0.00202295
77 2 12.6992 13.7731 10.93 -0.0146012 -0.0417018 -0.0123085
78 2 4.56519 5.56797 10.5259 0.00169372 -0.0141535 0.0148933
79 1 4.03938 9.2836 9.2928 0.00194897 -0.00266774 0.000150392
80 2 3.63791 9.5171 10.1669 0.00620452 -0.00845738 -0.0208616
81 2 5.83903 10.2449 9.11778 -0.0173752 0.0150618 -0.00196346
82 1 6.9252 7.73818 11.2541 0.00128698 0.00177084 -0.00480633
83 2 6.05681 7.26086 11.2131 0.00963194 0.00250021 -0.0119251
84 2 6.75192 8.55828 10.7827 -0.00357324 0.033621 0.000343236
85 1 11.3415 13.4064 2.18192 0.00236635 0.00547502 -0.00341527
86 2 11.0434 4.3527 2.65835 0.00520068 0.00751817 0.00102763
87 2 4.44071 13.597 11.1944 0.00446887 -0.000197184 0.00285219
88 1 7.69284 12.9035 6.44265 -0.00156061 0.00329891 0.00470476
89 2 6.93933 12.2544 6.43397 0.00925016 -0.00183689 0.00439897
90 2 7.29069 13.5902 6.91674 0.00685542 -0.0183317 -0.00702733
91 1 6.72375 6.89641 6.67934 0.000612604 0.00503958 0.0020184
92 2 5.27259 7.68946 5.98971 -0.00863434 -0.00544633 -0.00754637
93 2 6.57337 6.37836 7.43494 -0.0184081 0.00285757 0.00771861
94 1 3.57817 13.6309 7.68117 -0.00460399 -0.0117482 -0.000991213
95 2 3.54645 13.6594 8.67314 0.00284324 -0.00449155 0.0139483
96 2 3.73786 4.88638 6.07948 0.0315571 -0.00980777 -0.00825474
ITEM: TIMESTEP
4
ITEM: NUMBER OF ATOMS
96
ITEM: BOX BOUNDS pp pp pp
2.9236100000000000e+00 1.2773600000000000e+01
4.0306300000000004e+00 1.3880599999999999e+01
2.1372399999999998e+00 1.1987200000000000e+01
ITEM: ATOMS id type x y z vx vy vz
1 1 5.23199 13.8202 2.94394 0.00228788 0.00171295 0.00347897
2 2 5.28462 12.8709 3.26619 -0.0119447 0.0026117 -0.00496003
3 2 11.2908 12.8753 2.92309 -0.00499148 -0.00926872 0.00868889
4 1 12.5106 9.67786 11.7618 -0.000701933 -0.00334747 -0.00717315
5 2 11.5113 9.92758 11.5029 -0.00917388 0.00160667 -0.00144468
6 2 12.4231 8.75936 2.17135 -0.0131854 0.00200348 0.0114341
7 1 3.01034 7.27429 2.93448 -0.00279705 0.00588344 0.00173614
8 2 11.9182 7.03898 3.13703 -0.00113143 0.0100605 0.0519739
9 2 8.80737 8.94076 7.20739 0.00429826 0.00501194 -0.0214298
10 1 7.8859 9.2947 6.94716 -0.00709163 -0.00424186 -0.00125613
11 2 7.3098 7.82748 6.92773 -0.00679637 -0.0209718 -0.0325683
12 2 7.44133 9.61467 7.82185 0.000995297 -0.00733436 0.00053197
13 1 6.64142 9.28371 3.84565 -0.00113949 0.000215777 -0.0027594
14 2 6.01271 8.74782 4.25593 0.005565 -0.0252272 0.0190192
15 2 6.95073 8.69202 3.10283 -0.0122424 -0.0270844 -0.00922619
16 1 9.65182 7.2992 10.5428 0.00165682 -0.00415644 -0.00221561
17 2 9.90159 7.01825 11.464 -0.0111809 -0.00194291 0.0132588
18 2 8.6514 7.16734 10.6378 -0.000722037 -0.0113372 0.0182629
19 1 4.55084 6.56531 10.552 0.00619748 -0.00262238 0.00255195
20 2 3.73486 6.7941 11.0189 0.000973171 -0.0165583 0.0006441
21 2 4.4957 8.43878 9.51429 -0.0175666 0.0304531 0.0112937
22 1 9.91 9.82822 11.2355 -0.00177942 -0.00087046 0.000189165
23 2 9.51078 9.88342 2.32107 0.0109197 0.00216957 -0.0122424
24 2 9.77901 8.90789 10.8894 -0.0156344 -0.022907 0.00248837
25 1 4.45366 7.93939 5.57773 -0.00229078 -0.00352037 -0.00749795
26 2 3.8892 8.30052 6.26327 -0.00699639 0.00917032 -0.0258684
27 2 3.83411 6.27198 5.40102 0.0154547 -0.0130819 0.0156433
28 1 9.99757 7.04172 3.61951 0.00345199 -0.00325535 0.00900368
29 2 9.26762 6.44789 3.98129 0.00588335 0.0198051 -0.014033
30 2 9.66312 7.94267 3.88953 -0.0219765 0.0244017 -0.0165398
31 1 11.5072 11.1798 5.26093 -0.00210563 0.00159445 0.00305065
32 2 11.3213 12.1218 5.19465 0.00898851 0.0121929 0.0134131
33 2 12.3745 11.2031 4.7884 0.00532176 0.0142634 -0.0166237
34 1 7.54033 4.35694 10.8788 -0.00122249 0.0077757 -0.00408716
35 2 7.93667 13.3626 10.9186 0.0291527 -0.00566612 0.0084918
36 2 7.03145 4.5861 11.6715 -0.0074745 -0.00375999 -0.0174534
37 1 8.53428 11.9408 10.0645 0.00166283 -0.00561188 0.00425843
38 2 9.12573 12.4221 9.40371 -0.00878948 0.0307847 -0.00985615
39 2 9.19602 11.7917 10.7611 -0.0215837 0.0490286 0.00826501
40 1 11.0193 4.09215 4.91419 -0.00146357 0.00292923 -0.00355647
41 2 11.7782 4.45816 5.37329 -0.00397953 -0.0103048 0.0252091
42 2 10.324 4.7532 4.78303 0.00210561 0.000301027 0.00239548
43 1 3.57923 5.31486 5.23862 -0.000704908 0.00306512 -0.00153299
44 2 3.36802 7.69661 3.72736 -0.00486041 0.00202561 -0.0102607
45 2 4.52989 4.30818 3.49074 -0.00859843 0.018546 0.00893775
46 1 10.0941 13.4746 7.99128 0.000454673 -0.000494753 0.00755891
47 2 9.36333 13.2058 7.3488 0.0317095 -0.0308387 -0.00686733
48 2 10.7727 12.8334 7.72658 0.0248093 0.0244496 -0.00586004
49 1 10.9805 6.17254 8.46719 0.0064854 0.000498277 0.00489617
50 2 10.8293 5.17659 8.35304 -0.00515283 -0.00219332 -0.011172
51 2 10.8285 6.35107 9.41716 0.00572864 0.0228723 -0.00529266
52 1 9.4084 9.70493 4.06637 0.00653 -0.00674751 0.0051717
53 2 10.0783 9.93617 4.75423 0.00877909 0.0315096 0.00892484
54 2 8.63199 9.49853 4.5178 0.00632737 0.0131856 0.0136172
55 1 4.49147 11.1259 3.74064 -0.001716 -0.00585114 0.00277688
56 2 5.28711 10.555 3.61002 -0.0172098 0.0186567 -0.0273833
57 2 3.80041 10.7527 3.18893 0.000791782 -0.00814782 0.00394279
58 1 6.74725 9.94806 9.30248 2.20488e-05 0.00408732 0.00171109
59 2 5.47858 10.4359 6.44898 -0.0145307 -0.00158561 0.00915208
60 2 7.2704 10.7486 9.57043 0.00639623 0.0349779 0.0106086
61 1 6.21121 4.69142 8.25657 -0.00555448 0.00239502 -0.00500156
62 2 6.58527 4.50668 9.1563 -0.0203323 -0.00410082 0.00316208
63 2 5.23999 4.72187 8.42791 -0.0128548 -0.015526 -0.0126291
64 1 4.95709 11.2773 6.38864 0.00443213 -0.00401631 -0.00388746
65 2 4.74549 11.3985 5.4596 -0.0217116 -0.0105891 0.0108076
66 2 3.90601 12.7545 7.46488 -0.00389036 0.00928032 -0.0106691
67 1 11.9676 10.7107 7.95513 -0.000476701 -0.00114903 -0.00262277
68 2 12.0781 10.9118 7.00425 0.00894976 0.0419691 0.0165619
69 2 2.97539 10.1823 8.14205 0.00281907 0.00266684 -0.00900108
70 1 7.95458 5.341 4.62205 -0.00678702 0.00589685 -0.00119534
71 2 7.94506 4.45227 5.03068 0.0107529 0.0138764 -0.00726796
72 2 7.36502 5.86491 5.22081 0.0077386 -0.0168819 0.0220884
73 1 10.4394 8.51177 7.12026 0.000900128 -0.00128161 -0.000870288
74 2 10.6448 7.80227 7.71672 0.00714559 -0.00368804 0.0236945
75 2 10.8651 9.31719 7.53985 0.0106047 0.0159579 -0.00504489
76 1 3.75921 13.8142 10.5126 0.00374789 -0.000872343 -0.00218769
77 2 12.6926 13.752 10.9243 -0.0113333 -0.04251 -0.0109421
78 2 4.56568 5.56154 10.5335 0.000424915 -0.0112097 0.0153535
79 1 4.04041 9.2822 9.29294 0.00213381 -0.00287341 0.000320557
80 2 3.64083 9.51296 10.1561 0.00499208 -0.0076482 -0.0215454