ITEM: TIMESTEP
0
ITEM: NUMBER OF ATOMS
96
ITEM: BOX BOUNDS pp pp pp
2.9236100000000000e+00 1.2773600000000000e+01
4.0306300000000004e+00 1.3880599999999999e+01
2.1372399999999998e+00 1.1987200000000000e+01
ITEM: ATOMS id type x y z vx vy vz
1 1 5.22727 13.8131 2.93493 -0.00135101 -0.00383914 -0.0038466
2 2 5.31101 12.8919 3.26442 0.00948816 0.0159524 -0.00560931
3 2 11.314 12.8239 2.94715 0.0123289 -0.0380153 0.0205796
4 1 12.5105 9.68875 11.7783 -0.000402064 0.00506972 0.00610993
5 2 11.5567 9.92712 11.51 0.0237416 0.00114742 0.00389907
6 2 12.4716 8.72297 2.15585 0.0245798 -0.0225197 -0.00220597
7 1 3.01675 7.25956 2.92945 0.00265956 -0.0057822 -0.00233124
8 2 11.9341 7.02242 3.02591 0.0085113 -0.00337343 -0.034305
9 2 8.79992 8.93804 7.25392 -0.000988873 0.00246615 0.0149412
10 1 7.90258 9.30321 6.95147 0.00617355 0.00246697 0.00224933
11 2 7.28205 7.82406 6.9887 -0.0288357 -0.0241623 0.0130942
12 2 7.4467 9.62877 7.81238 0.00485915 0.00430762 -0.00770698
13 1 6.64624 9.28447 3.85054 0.00255252 0.00120888 0.00161758
14 2 5.96196 8.78111 4.23925 -0.033604 0.000579124 0.00348986
15 2 6.97785 8.76643 3.12631 0.0102455 0.0269044 0.00476783
16 1 9.64599 7.3076 10.5499 -0.00267536 0.00271421 0.00302977
17 2 9.93661 7.02746 11.4298 0.0145028 0.00415317 -0.0103226
18 2 8.66915 7.20555 10.5809 0.0103151 0.0178235 -0.0236423
19 1 4.53571 6.57185 10.5445 -0.00583006 0.00297806 -0.00352657
20 2 3.73674 6.83243 11.0285 0.00228468 0.0128519 0.0082152
21 2 4.51876 8.39198 9.47674 -0.00339476 -0.000166719 -0.0179864
22 1 9.91462 9.83406 11.2374 0.00188145 0.00394976 0.00169298
23 2 9.49995 9.86642 2.31713 0.00217235 -0.0112995 -0.014437
24 2 9.80994 8.94192 10.8786 0.00871077 0.00184854 -0.0071835
25 1 4.45658 7.94871 5.5946 0.0002539 0.00388201 0.00636441
26 2 3.90757 8.27877 6.33206 0.00881358 -0.00910714 0.0263165
27 2 3.79232 6.28961 5.35372 -0.0174078 -0.000420693 -0.0205511
28 1 9.98664 7.04768 3.59804 -0.00510971 0.000881353 -0.00828477
29 2 9.28251 6.40967 3.9976 0.0185737 -0.00800464 -0.00201817
30 2 9.73241 7.88939 3.92297 0.0297484 -0.0114208 0.0130027
31 1 11.5146 11.1755 5.25269 0.00330302 -0.00196197 -0.0032811
32 2 11.2719 12.1091 5.17066 -0.027797 0.00161817 -0.00691058
33 2 12.3635 11.1452 4.83307 0.00120614 -0.0291101 0.016192
34 1 7.54112 4.3434 10.8882 -0.000609376 -0.00305239 0.00363726
35 2 7.8786 13.3205 10.9131 -0.017146 -0.0394811 0.00365908
36 2 7.05536 4.57197 11.7125 0.0123026 -0.0150272 0.0132494
37 1 8.53336 11.9557 10.0542 0.000884607 0.00583787 -0.00346757
38 2 9.12668 12.3409 9.42751 -0.00340495 -0.0293177 0.00330391
39 2 9.2289 11.6529 10.7296 0.000509894 -0.0596287 -0.0198014
40 1 11.021 4.08361 4.92204 -5.79737e-05 -0.00380983 0.00273827
41 2 11.7933 4.51011 5.31049 0.00880029 0.0298503 -0.0249157
42 2 10.3351 4.75609 4.78771 0.00990138 0.001737 0.00537703
43 1 3.58151 5.30866 5.24224 0.00109689 -0.00185987 0.00127867
44 2 3.36671 7.67694 3.75409 -0.00826127 -0.0148622 0.00933373
45 2 4.5378 4.2809 3.48305 -0.00445541 -0.00201259 0.00435333
46 1 10.0913 13.4736 7.97082 -0.00177806 -0.00103546 -0.00857921
47 2 9.30562 13.299 7.38791 -0.0140181 0.0408611 0.0222664
48 2 10.716 12.7772 7.74913 -0.0212838 -0.0218366 0.0102588
49 1 10.9649 6.16954 8.4561 -0.00602968 -0.00171592 -0.00381405
50 2 10.8412 5.20234 8.3721 0.00418971 0.0131122 0.00122931
51 2 10.8076 6.30256 9.41584 -0.0105986 -0.0133583 -0.00603187
52 1 9.39437 9.72194 4.05239 -0.00522581 0.00673724 -0.00588752
53 2 10.0556 9.8656 4.73554 -0.00804153 -0.024248 -0.00403736
54 2 8.57436 9.4658 4.50881 -0.0325514 -0.0112658 0.00259277
55 1 4.49699 11.1406 3.73319 0.00286092 0.00562474 -0.00320725
56 2 5.30963 10.5151 3.67639 -0.00420718 -0.00969836 0.0248406
57 2 3.79752 10.7596 3.16841 0.00128796 -0.00193447 -0.0106169
58 1 6.74721 9.93643 9.29791 6.83331e-05 -0.0058672 -0.00201262
59 2 5.4972 10.4679 6.42119 0.000702967 0.0232564 -0.0112505
60 2 7.25891 10.6748 9.54799 0.00202031 -0.0159124 -0.00458392
61 1 6.22461 4.68596 8.27085 0.00544131 -0.00195622 0.00607639
62 2 6.63479 4.52246 9.13572 0.019703 0.00768769 -0.0097135
63 2 5.2857 4.75289 8.45116 0.0193747 0.00924955 0.00748382
64 1 4.94765 11.2859 6.40021 -0.00312934 0.00286253 0.00493806
65 2 4.79744 11.4233 5.42843 0.0194836 0.00997252 -0.00986096
66 2 3.91654 12.7344 7.48818 0.00272511 -0.00186232 0.00774915
67 1 11.9711 10.7118 7.96038 0.00205485 -0.000100073 0.00134981
68 2 12.0375 10.8161 6.96423 -0.0230165 -0.034699 -0.0121096
69 2 2.93543 10.1939 8.18011 -0.0246616 0.0097363 0.0215429
70 1 7.97107 5.32604 4.62612 0.00641554 -0.00607388 0.00203074
71 2 7.91991 4.43153 5.04414 -0.00989339 -0.000822213 0.00378732
72 2 7.36024 5.90048 5.1593 0.00447385 0.00956958 -0.0265663
73 1 10.4366 8.51771 7.12113 -0.00141215 0.00322663 -0.000287013
74 2 10.6301 7.76406 7.68224 -0.00433827 -0.032423 -0.00430565
75 2 10.8449 9.29198 7.5486 -0.00400347 -0.00239528 0.00415088
76 1 3.74999 13.8165 10.5168 -0.00344175 0.00101701 0.00117317
77 2 12.7341 13.8522 10.9617 0.0169437 0.0371912 0.0197389
78 2 4.55517 5.60159 10.499 -0.00874251 0.0161625 -0.0116716
79 1 4.03629 9.28759 9.2939 -0.00115437 0.00121244 0.00144278
80 2 3.62686 9.53137 10.1959 -0.00276227 0.00377267 0.00506066
81 2 5.86333 10.216 9.12148 0.00288521 -0.0122043 0.000976879
82 1 6.92223 7.73403 11.2644 -0.00171558 -0.00263946 0.00559329
83 2 6.04237 7.252 11.2362 -0.00360018 -0.00574307 0.0112501
84 2 6.76299 8.50453 10.7704 0.00679451 -0.0166627 -0.0139324
85 1 11.3362 13.3973 2.18767 -0.00294491 -0.00383419 0.00270506
86 2 11.0337 4.35396 2.64351 -0.00329142 0.00146154 -0.0125004
87 2 4.42729 13.5974 11.2007 -0.00779424 0.000139268 0.00883099
88 1 7.69495 12.8956 6.43263 0.000330112 -0.00413857 -0.00501124
89 2 6.93681 12.2631 6.42107 0.00650078 0.0071236 -0.00821421
90 2 7.27444 13.6432 6.94181 -0.00597462 0.0271283 0.0132852
91 1 6.72476 6.8904 6.67447 0.00163101 -0.000928596 -0.00267761
92 2 5.31151 7.69174 6.01709 0.026461 -0.0024031 0.0172882
93 2 6.61028 6.3594 7.44119 0.0180374 -0.016055 0.0124783
94 1 3.5876 13.6541 7.68347 0.00491385 0.0112172 0.0010336
95 2 3.53923 13.6673 8.63798 -0.0047934 0.00414419 -0.0168563
96 2 3.67714 4.89943 6.10781 -0.028823 0.0045474 0.0195663
ITEM: TIMESTEP
1
ITEM: NUMBER OF ATOMS
96
ITEM: BOX BOUNDS pp pp pp
2.9236100000000000e+00 1.2773600000000000e+01
4.0306300000000004e+00 1.3880599999999999e+01
2.1372399999999998e+00 1.1987200000000000e+01
ITEM: ATOMS id type x y z vx vy vz
1 1 5.22665 13.8111 2.93298 -0.00115087 -0.00406075 -0.00396991
2 2 5.31568 12.9002 3.26126 0.00924476 0.0164521 -0.00675178
3 2 11.3203 12.8046 2.95752 0.0129709 -0.0379928 0.0197584
4 1 12.5103 9.69132 11.7813 -0.000328112 0.00515503 0.00598562
5 2 11.5688 9.9278 11.512 0.0240322 0.00151965 0.00409084
6 2 12.4843 8.71149 2.155 0.0259605 -0.0225315 -0.00140806
7 1 3.01812 7.25669 2.92825 0.00282506 -0.00569208 -0.00248682
8 2 11.9383 7.02101 3.00995 0.0077329 -0.00237513 -0.0294213
9 2 8.79967 8.93957 7.26094 6.66757e-05 0.00356696 0.0130635
10 1 7.90562 9.30435 6.95265 0.00597633 0.00211227 0.00246454
11 2 7.26604 7.80984 6.99396 -0.0347131 -0.0322033 0.00800639
12 2 7.44934 9.63083 7.80811 0.00556242 0.00400369 -0.00932734
13 1 6.64755 9.28518 3.85137 0.00261083 0.00160781 0.00174503
14 2 5.9443 8.78031 4.24161 -0.0360306 -0.00323118 0.00526455
15 2 6.98295 8.77916 3.12786 0.0100779 0.0236439 0.00119957
16 1 9.64465 7.30891 10.5514 -0.00262835 0.00253916 0.00290314
17 2 9.9437 7.02947 11.4253 0.0135763 0.00375895 -0.00739393
18 2 8.67426 7.21457 10.5693 0.00961912 0.0180989 -0.0223403
19 1 4.53282 6.57341 10.5427 -0.00571592 0.00329096 -0.00373596
20 2 3.73803 6.83852 11.033 0.00291539 0.0114349 0.00980665
21 2 4.51559 8.39406 9.46757 -0.00918864 0.00830317 -0.0184708
22 1 9.91556 9.8362 11.2383 0.00189787 0.00457893 0.00196097
23 2 9.50159 9.86036 2.30892 0.00412868 -0.0128363 -0.017748
24 2 9.81393 8.9416 10.8747 0.00729408 -0.00292014 -0.00854571
25 1 4.45665 7.95066 5.59778 7.71454e-05 0.00389388 0.00642115
26 2 3.91223 8.2741 6.34483 0.00993703 -0.00965994 0.0244763
27 2 3.78361 6.28862 5.34345 -0.0173169 -0.00341996 -0.0203361
28 1 9.98404 7.04793 3.59391 -0.00526925 0.000105846 -0.00825875
29 2 9.29296 6.40653 3.99574 0.0228507 -0.004617 -0.00524345
30 2 9.74719 7.88519 3.92969 0.0291264 -0.00508388 0.0141303
31 1 11.5162 11.1745 5.25107 0.00324019 -0.00207382 -0.00316766
32 2 11.2576 12.1104 5.16736 -0.0290202 0.0030214 -0.00641556
33 2 12.365 11.1304 4.84078 0.00488973 -0.0297818 0.0144825
34 1 7.54073 4.34208 10.89 -0.000899422 -0.00231599 0.00364988
35 2 7.87047 13.2989 10.9154 -0.0157693 -0.0455104 0.00549035
36 2 7.06181 4.56355 11.7187 0.0134507 -0.0185118 0.0113541
37 1 8.53391 11.9586 10.0526 0.00128582 0.00558438 -0.00298462
38 2 9.12507 12.327 9.42799 -0.00250434 -0.025858 -0.00193998
39 2 9.22764 11.6229 10.7188 -0.00557525 -0.0601995 -0.0231689
40 1 11.0209 4.08168 4.92337 -0.000286293 -0.00390578 0.0026155
41 2 11.798 4.52572 5.298 0.00965565 0.0321821 -0.0251647
42 2 10.3404 4.75696 4.79066 0.0110757 0.00169486 0.00626865
43 1 3.58207 5.30778 5.24286 0.00115695 -0.00166637 0.00122672
44 2 3.36169 7.66877 3.75854 -0.0118412 -0.0177712 0.00848558
45 2 4.53479 4.2808 3.48599 -0.00729481 0.00142417 0.00717881
46 1 10.0904 13.473 7.96652 -0.00196951 -0.00118432 -0.0085931
47 2 9.29943 13.3195 7.39942 -0.0110518 0.0407293 0.0232897
48 2 10.7054 12.7662 7.75421 -0.0212395 -0.0221645 0.00987013
49 1 10.9619 6.16866 8.45426 -0.00591888 -0.00178058 -0.00354652
50 2 10.8432 5.20862 8.37185 0.00383761 0.011334 -0.00241464
51 2 10.8021 6.29669 9.41239 -0.0114084 -0.00997085 -0.00752419
52 1 9.39174 9.72529 4.04944 -0.00536031 0.00662571 -0.00587978
53 2 10.0517 9.85391 4.73398 -0.00742825 -0.0224939 -0.00221196
54 2 8.55797 9.46057 4.51027 -0.0319448 -0.00931936 0.00266872
55 1 4.49849 11.1434 3.73156 0.00311738 0.00542567 -0.00331572
56 2 5.30593 10.5111 3.68855 -0.0105669 -0.00621059 0.0237071
57 2 3.79864 10.7583 3.16305 0.00340736 -0.00329157 -0.0106338
58 1 6.74726 9.93333 9.29688 0.000129495 -0.00653258 -0.00209607
59 2 5.49702 10.4803 6.41574 -0.00106794 0.0258868 -0.0103127
60 2 7.26087 10.6687 9.54631 0.00581089 -0.00823953 -0.00211041
61 1 6.22737 4.68501 8.27389 0.00561168 -0.00185145 0.00603857
62 2 6.6447 4.52636 9.13109 0.0200352 0.00782471 -0.0083318
63 2 5.29505 4.75721 8.45487 0.0174893 0.00805252 0.00756778
64 1 4.94614 11.2873 6.40267 -0.00290994 0.00270268 0.00486527
65 2 4.80699 11.4284 5.42413 0.0186221 0.0104352 -0.0069711
66 2 3.91763 12.7344 7.49186 0.00156178 0.00226267 0.00688272
67 1 11.9721 10.7117 7.96096 0.00207445 -0.000183784 0.000962693
68 2 12.0254 10.7991 6.95883 -0.0250816 -0.0333753 -0.00927643
69 2 12.7728 10.199 8.19149 -0.0252148 0.0102173 0.023889
70 1 7.97426 5.323 4.62717 0.00636807 -0.00609693 0.00213827
71 2 7.91494 4.43192 5.04593 -0.0100395 0.00224136 0.00351284
72 2 7.3631 5.90468 5.1459 0.00685366 0.00720316 -0.0268869
73 1 10.4359 8.51937 7.12093 -0.0015362 0.00337557 -0.000482311
74 2 10.628 7.74664 7.68078 -0.00402984 -0.0361445 -0.00211049
75 2 10.8434 9.29155 7.5509 -0.00201502 0.000392282 0.00515107
76 1 3.74831 13.817 10.5173 -0.00327044 0.00104603 0.000982257
77 2 12.7422 13.8705 10.9721 0.0150104 0.0359969 0.0216967
78 2 4.5503 5.60924 10.4934 -0.010731 0.013919 -0.01072
79 1 4.03576 9.2881 9.29474 -0.00097513 0.000825692 0.00192346
80 2 3.62598 9.53267 10.197 -0.000657986 0.00133259 -0.000495396
81 2 5.86332 10.2103 9.12181 -0.0029829 -0.010484 0.000347967
82 1 6.92134 7.73262 11.2673 -0.00184996 -0.00299015 0.00585502
83 2 6.04113 7.24904 11.2418 -0.00128075 -0.00596795 0.0110391
84 2 6.76648 8.49768 10.7623 0.00711976 -0.0108362 -0.0183251
85 1 11.3347 13.3954 2.18905 -0.00308238 -0.00367179 0.00286397
86 2 11.0323 4.35421 2.63676 -0.00216076 -0.000663645 -0.0142273
87 2 4.42337 13.5975 11.2058 -0.00773073 0.000136352 0.0111619
88 1 7.69501 12.8936 6.43016 -0.000111312 -0.00393001 -0.00484772
89 2 6.94093 12.267 6.41677 0.00962264 0.00819573 -0.00892053
90 2 7.27206 13.6561 6.94806 -0.00312197 0.0232723 0.011051
91 1 6.72571 6.89018 6.67312 0.00212102 8.54261e-07 -0.00266555
92 2 5.3251 7.69021 6.02587 0.0269469 -0.00352587 0.0172746
93 2 6.61921 6.35064 7.44831 0.0176305 -0.018722 0.0153497
94 1 3.59009 13.6596 7.68394 0.00505161 0.0109167 0.000811371
95 2 3.53664 13.6695 8.63012 -0.00565107 0.00469068 -0.013867
96 2 3.66295 4.90163 6.11812 -0.0279257 0.00458654 0.0212924
ITEM: TIMESTEP
2
ITEM: NUMBER OF ATOMS
96
ITEM: BOX BOUNDS pp pp pp
2.9236100000000000e+00 1.2773600000000000e+01
4.0306300000000004e+00 1.3880599999999999e+01
2.1372399999999998e+00 1.1987200000000000e+01
ITEM: ATOMS id type x y z vx vy vz
1 1 5.22612 13.809 2.93096 -0.000999946 -0.00416178 -0.00408654
2 2 5.32025 12.9084 3.25767 0.00908235 0.0155181 -0.00734856
3 2 11.327 12.7859 2.96691 0.0134202 -0.0356558 0.0168982
4 1 12.5102 9.69391 11.7843 -0.000145685 0.00513426 0.00590687
5 2 11.5807 9.92864 11.5141 0.0232838 0.00178195 0.0041164
6 2 12.4976 8.70044 2.15444 0.0269415 -0.0208378 -0.00100316
7 1 3.01958 7.25387 2.92696 0.00302842 -0.00558913 -0.00265954
8 2 11.9418 7.02004 2.99649 0.00624113 -0.00157391 -0.0243658
9 2 8.79999 8.94161 7.26698 0.00124413 0.00445633 0.0110178
10 1 7.90856 9.30532 6.95393 0.00579938 0.00179637 0.00266431
11 2 7.24734 7.79186 6.99671 -0.0394483 -0.0389362 0.00320428
12 2 7.45226 9.63277 7.80305 0.00597665 0.00384469 -0.0107679
13 1 6.64885 9.28608 3.85229 0.00254863 0.00195792 0.0019826
14 2 5.92593 8.77788 4.24451 -0.0363403 -0.00587425 0.00563647
15 2 6.98793 8.79007 3.12751 0.00972226 0.0198213 -0.00267775
16 1 9.64336 7.31014 10.5528 -0.00249095 0.00240069 0.00270582
17 2 9.95019 7.03122 11.4224 0.0121192 0.00316302 -0.00397095
18 2 8.67877 7.22365 10.5586 0.00793791 0.0180432 -0.0203479
19 1 4.52999 6.57514 10.5408 -0.00559732 0.00366379 -0.00394067
20 2 3.73966 6.84386 11.0383 0.003621 0.00989747 0.0112464
21 2 4.50957 8.40028 9.45827 -0.0146251 0.0160353 -0.0184928
22 1 9.91652 9.83864 11.2394 0.00192536 0.00515533 0.0021293
23 2 9.50408 9.85358 2.29938 0.005527 -0.0141728 -0.0196484
24 2 9.81723 8.939 10.8701 0.00601146 -0.00711657 -0.00983301
25 1 4.45666 7.9526 5.60102 1.35058e-05 0.00387631 0.00657444
26 2 3.91751 8.26911 6.35654 0.0112047 -0.0103172 0.0221212
27 2 3.775 6.28619 5.33338 -0.0170263 -0.00607224 -0.0197094
28 1 9.98137 7.04779 3.58978 -0.00534656 -0.000661791 -0.00828586
29 2 9.30536 6.40505 3.99236 0.026239 -0.00144659 -0.00801727
30 2 9.76154 7.88431 3.9371 0.0280971 0.00152143 0.0156219
31 1 11.5178 11.1734 5.24952 0.00310017 -0.00216915 -0.00302244
32 2 11.2429 12.1121 5.16424 -0.0290657 0.00343296 -0.00617529
33 2 12.3684 11.1154 4.84755 0.00863092 -0.0295535 0.0125635
34 1 7.54022 4.34108 10.8918 -0.00112196 -0.00176475 0.00368745
35 2 7.86283 13.275 10.9186 -0.0151985 -0.0488776 0.00694622
36 2 7.06881 4.55346 11.7239 0.0144566 -0.0217014 0.0093913
37 1 8.53465 11.9613 10.0512 0.00161673 0.00525544 -0.00245371
38 2 9.12418 12.315 9.42557 -0.000680549 -0.0216496 -0.0080962
39 2 9.22332 11.5927 10.7064 -0.0115998 -0.0603817 -0.0263424
40 1 11.0207 4.0797 4.92466 -0.000447636 -0.00395665 0.00252401
41 2 11.803 4.54229 5.28533 0.0101547 0.0335923 -0.0257026
42 2 10.3462 4.75778 4.79398 0.0115422 0.00155897 0.00686796
43 1 3.58267 5.30699 5.24347 0.00120679 -0.00153202 0.00120478
44 2 3.35487 7.65917 3.76258 -0.0153564 -0.0205234 0.00777824
45 2 4.53051 4.28232 3.49023 -0.00938706 0.00442921 0.00945899
46 1 10.0893 13.4724 7.96223 -0.00209767 -0.00128136 -0.00852715
47 2 9.29457 13.3397 7.4112 -0.00879904 0.0398402 0.0233457
48 2 10.6948 12.755 7.759 -0.0214899 -0.0226899 0.00911186
49 1 10.959 6.16776 8.45255 -0.00579652 -0.00176997 -0.00329767
50 2 10.845 5.21367 8.36969 0.00341589 0.00828846 -0.0063561
51 2 10.7962 6.29259 9.40832 -0.0122428 -0.00632784 -0.00849301
52 1 9.38901 9.72857 4.04651 -0.00561497 0.00646942 -0.00579429
53 2 10.0482 9.84311 4.73333 -0.00691923 -0.0207096 -0.000437535
54 2 8.54242 9.45648 4.51148 -0.0293267 -0.00676429 0.00163994
55 1 4.50011 11.146 3.72987 0.00333371 0.00520819 -0.00343225
56 2 5.29906 10.5089 3.7001 -0.0166444 -0.00273167 0.0223997
57 2 3.80093 10.7563 3.15778 0.00583128 -0.0043607 -0.0102888
58 1 6.74734 9.9299 9.29581 0.000194926 -0.00719084 -0.00217069
59 2 5.49613 10.4938 6.41088 -0.00204114 0.0272642 -0.0088999
60 2 7.26472 10.6666 9.54588 0.00929246 -0.000702162 0.000280002
61 1 6.23022 4.68411 8.27689 0.00583673 -0.00174025 0.00592272
62 2 6.65483 4.53028 9.12739 0.0205328 0.00780409 -0.0061043
63 2 5.30319 4.76094 8.45873 0.0146611 0.00690728 0.00801837
64 1 4.94474 11.2886 6.40508 -0.00272709 0.00260672 0.00471615
65 2 4.81606 11.4337 5.42146 0.0175304 0.0111409 -0.0034304
66 2 3.9181 12.7367 7.49506 0.000311976 0.00667872 0.00584906
67 1 11.9732 10.7116 7.96134 0.00195779 -0.000200663 0.000553124
68 2 12.0124 10.7827 6.95495 -0.0266564 -0.0321217 -0.00610832
69 2 12.7602 10.2041 8.204 -0.024263 0.00986709 0.0260243
70 1 7.97744 5.31994 4.62826 0.00634553 -0.00610907 0.00220331
71 2 7.90987 4.43377 5.04765 -0.0102701 0.00491694 0.00351665
72 2 7.36709 5.90768 5.13241 0.00890694 0.00488542 -0.0268845
73 1 10.4351 8.52109 7.12065 -0.00163693 0.00341718 -0.000605131
74 2 10.6261 7.72792 7.68013 -0.00399919 -0.0375712 -0.00111067
75 2 10.8429 9.29237 7.55375 -7.64756e-05 0.00249346 0.00628464
76 1 3.74672 13.8175 10.5178 -0.00308182 0.00106949 0.000833924
77 2 12.7491 4.03823 10.9834 0.0124439 0.034828 0.0234204
78 2 4.54444 5.61551 10.4883 -0.0127304 0.0107906 -0.00977237
79 1 4.03531 9.28842 9.29582 -0.000814117 0.000488404 0.00236891
80 2 3.6262 9.5327 10.1954 0.00150531 -0.00123582 -0.00582217
81 2 5.86035 10.2055 9.12183 -0.00863346 -0.00868245 -0.000191183
82 1 6.92038 7.73104 11.2703 -0.00199021 -0.00331788 0.00610741
83 2 6.04109 7.24603 11.2472 0.00115559 -0.00594428 0.0107148
84 2 6.77011 8.49369 10.7521 0.0073583 -0.00552957 -0.0224678
85 1 11.3331 13.3936 2.19053 -0.00319688 -0.0036354 0.00312087
86 2 11.0315 4.3533 2.62928 -0.00115037 -0.0030213 -0.0153888
87 2 4.41956 13.5975 11.2119 -0.00739896 0.000160785 0.0130225
88 1 7.69484 12.8917 6.42778 -0.000551556 -0.00357198 -0.00461449
89 2 6.94643 12.2713 6.41215 0.0119416 0.00880249 -0.00952637
90 2 7.27132 13.6665 6.95286 0.000419731 0.0175691 0.00767887
91 1 6.72688 6.8904 6.6718 0.00252932 0.000784717 -0.00257619
92 2 5.33846 7.68821 6.03436 0.0255568 -0.00423584 0.0161812
93 2 6.62791 6.34068 7.45654 0.0171188 -0.0207853 0.0168199
94 1 3.59265 13.665 7.68428 0.00520077 0.0105872 0.000517087
95 2 3.53358 13.672 8.62411 -0.0066562 0.00542906 -0.00962985
96 2 3.64921 4.90402 6.1291 -0.0269649 0.00527322 0.0221637
ITEM: TIMESTEP
3
ITEM: NUMBER OF ATOMS
96
ITEM: BOX BOUNDS pp pp pp
2.9236100000000000e+00 1.2773600000000000e+01
4.0306300000000004e+00 1.3880599999999999e+01
2.1372399999999998e+00 1.1987200000000000e+01
ITEM: ATOMS id type x y z vx vy vz
1 1 5.22565 13.8069 2.92889 -0.000913935 -0.00413735 -0.00418639
2 2 5.32476 12.9157 3.25392 0.00897858 0.0132128 -0.00738753
3 2 11.3338 12.7689 2.97442 0.0136504 -0.0314098 0.0124638
4 1 12.5102 9.69645 11.7872 0.000141458 0.00501381 0.00587506
5 2 11.5921 9.92958 11.5161 0.0214959 0.0019309 0.00395899
6 2 12.5112 8.69065 2.15399 0.027502 -0.0175385 -0.000949154
7 1 3.02114 7.2511 2.92559 0.00325265 -0.00547953 -0.0028496
8 2 11.9445 7.01943 2.98558 0.00417582 -0.00096355 -0.0192585
9 2 8.80092 8.94403 7.27196 0.00255292 0.00512195 0.00884237
10 1 7.91141 9.30615 6.95531 0.00565054 0.0015286 0.00283822
11 2 7.22659 7.7709 6.99716 -0.0427654 -0.0438433 -0.000995606
12 2 7.45531 9.63468 7.79734 0.0060499 0.00385351 -0.0118915
13 1 6.65009 9.28714 3.85335 0.0023728 0.00223549 0.00230334
14 2 5.90796 8.77444 4.24725 -0.0344812 -0.00728161 0.00466347
15 2 6.99267 8.79898 3.12518 0.00904646 0.0157324 -0.0065125
16 1 9.64216 7.31131 10.5541 -0.00227139 0.00229336 0.0024574
17 2 9.95582 7.03263 11.4213 0.0101412 0.00243972 -0.000266393
18 2 8.6822 7.23262 10.549 0.00539908 0.0176995 -0.0177565
19 1 4.52723 6.57707 10.5387 -0.00547777 0.00407593 -0.00413777
20 2 3.74165 6.84842 11.0443 0.00443 0.00828337 0.0125046
21 2 4.50097 8.4101 9.44908 -0.0193235 0.0223544 -0.0180178
22 1 9.91749 9.84135 11.2405 0.00196732 0.00565952 0.00218168
23 2 9.50712 9.84619 2.28927 0.00629601 -0.0152904 -0.0200043
24 2 9.81994 8.93448 10.8648 0.0049077 -0.0104666 -0.0109518
25 1 4.45666 7.95453 5.60436 6.1697e-05 0.00382908 0.00680961
26 2 3.92344 8.26378 6.36695 0.0124962 -0.0110029 0.0194055
27 2 3.76659 6.28255 5.32374 -0.0165386 -0.0082088 -0.0187047
28 1 9.97869 7.04727 3.58562 -0.00533776 -0.00136425 -0.00836262
29 2 9.3192 6.40508 3.98772 0.0285191 0.00127317 -0.0101595
30 2 9.77529 7.88671 3.94532 0.0268259 0.00776944 0.0172301
31 1 11.5193 11.1723 5.24805 0.00290496 -0.00224332 -0.00285821
32 2 11.2285 12.1138 5.16119 -0.0279089 0.00279053 -0.00615746
33 2 12.3736 11.1008 4.85334 0.0120491 -0.0284368 0.0106116
34 1 7.53961 4.34031 10.8937 -0.00127168 -0.00142343 0.00374223
35 2 7.85527 13.2501 10.9224 -0.0154051 -0.0493047 0.00795646
36 2 7.07627 4.54185 11.7281 0.0152163 -0.0244875 0.00752451
37 1 8.53553 11.9638 10.0501 0.0018787 0.00487453 -0.00191506
38 2 9.12439 12.3053 9.41989 0.00173411 -0.0169757 -0.0147055
39 2 9.21604 11.5625 10.6925 -0.0172827 -0.0602797 -0.0291449
40 1 11.0205 4.07772 4.9259 -0.000532674 -0.00395398 0.0024666
41 2 11.8081 4.55932 5.2723 0.0102312 0.0339694 -0.0265457
42 2 10.352 4.75852 4.79753 0.0112337 0.00132629 0.00717192
43 1 3.58328 5.30625 5.24407 0.00124367 -0.00146803 0.00121859
44 2 3.34633 7.64824 3.76631 -0.0186752 -0.0230313 0.00733365
45 2 4.5254 4.28523 3.49545 -0.0104828 0.00685053 0.0110062
46 1 10.0883 13.4718 7.95799 -0.00215284 -0.0013327 -0.00838218
47 2 9.29063 13.3593 7.42276 -0.00738964 0.038258 0.0224293
48 2 10.6839 12.7435 7.76332 -0.0220416 -0.0233494 0.00803137
49 1 10.9561 6.16689 8.45096 -0.00566267 -0.00169283 -0.00307876
50 2 10.8466 5.21691 8.36549 0.00293024 0.00425438 -0.0104366
51 2 10.7899 6.29036 9.4039 -0.0131332 -0.00257547 -0.00892922
52 1 9.38612 9.73176 4.04364 -0.00596404 0.00627131 -0.00563201
53 2 10.0448 9.8332 4.73354 -0.00659377 -0.0188986 0.00116416
54 2 8.52864 9.45381 4.51191 -0.0250314 -0.0036844 -0.00033386
55 1 4.50182 11.1486 3.72813 0.00349214 0.00499199 -0.00355662
56 2 5.28929 10.5084 3.71095 -0.0219968 0.000442954 0.0209798
57 2 3.80448 10.7539 3.15276 0.0083732 -0.00514624 -0.00968295
58 1 6.74745 9.92614 9.29471 0.000259756 -0.00778926 -0.00222919
59 2 5.49498 10.5076 6.40684 -0.00209694 0.0272386 -0.00705845
60 2 7.27017 10.668 9.54659 0.011981 0.00603025 0.00234915
61 1 6.2332 4.68327 8.27981 0.00610309 -0.00162298 0.00574624
62 2 6.66523 4.53416 9.12499 0.0211139 0.00767307 -0.00322631
63 2 5.30971 4.76412 8.46289 0.0111671 0.0058031 0.00878178
64 1 4.94342 11.2899 6.40739 -0.00258718 0.00258405 0.00450825
65 2 4.82452 11.4395 5.4207 0.0162004 0.0120927 0.000570578
66 2 3.91794 12.7411 7.49771 -0.000919648 0.0110875 0.00463874
67 1 11.9741 10.7115 7.96151 0.00170855 -0.000154204 0.000135465
68 2 11.9988 10.767 6.95272 -0.0276739 -0.0309487 -0.00278666
69 2 12.7485 10.2089 8.21751 -0.0219553 0.00875226 0.027878
70 1 7.98061 5.31689 4.62937 0.00635446 -0.00610916 0.0022188
71 2 7.90467 4.43684 5.04945 -0.010576 0.00701573 0.00383447
72 2 7.37201 5.90956 5.11901 0.0105118 0.00278727 -0.0265129
73 1 10.4342 8.52279 7.12032 -0.00170667 0.00335711 -0.000645658
74 2 10.624 7.70907 7.67967 -0.00425734 -0.0366057 -0.0013243
75 2 10.8433 9.29404 7.55719 0.0017037 0.00371029 0.007427
76 1 3.74523 13.8181 10.5182 -0.00288951 0.00108883 0.00074556
77 2 12.7546 4.05535 10.9955 0.00953348 0.0336705 0.0247357
78 2 4.53757 5.62003 10.4836 -0.0147137 0.00703967 -0.0088465
79 1 4.03495 9.28858 9.29711 -0.000676496 0.000230505 0.00274551
80 2 3.62749 9.53144 10.1912 0.00349969 -0.00373772 -0.0104695
81 2 5.85468 10.2016 9.12162 -0.013473 -0.00697403 -0.000518168
82 1 6.91935 7.7293 11.2734 -0.00213083 -0.00358586 0.00633027
83 2 6.04228 7.2431 11.2525 0.00356963 -0.00570237 0.0102348
84 2 6.77384 8.49215 10.7399 0.00755876 -0.00126696 -0.0260118
85 1 11.3315 13.3918 2.19217 -0.00327946 -0.00371962 0.00343738
86 2 11.0312 4.35119 2.62138 -0.00036075 -0.00529549 -0.0158782
87 2 4.41597 13.5976 11.2188 -0.00686392 0.000218359 0.0143261
88 1 7.69445 12.89 6.42554 -0.000959753 -0.00308946 -0.00433272
89 2 6.95287 12.2758 6.40725 0.0132658 0.00879071 -0.0100382
90 2 7.27248 13.6736 6.95573 0.00437102 0.0105248 0.00349724
91 1 6.72824 6.89097 6.67055 0.00283578 0.00137553 -0.00242141
92 2 5.35066 7.68597 6.04205 0.0224151 -0.0045563 0.0140819
93 2 6.63633 6.32985 7.46513 0.0164904 -0.022192 0.01683
94 1 3.59529 13.6702 7.68446 0.0053536 0.0102513 0.000176457
95 2 3.52998 13.6749 8.62049 -0.00778424 0.00630571 -0.00451062
96 2 3.63598 4.90691 6.14029 -0.0259309 0.00657092 0.0221067
ITEM: TIMESTEP
4
ITEM: NUMBER OF ATOMS
96
ITEM: BOX BOUNDS pp pp pp
2.9236100000000000e+00 1.2773600000000000e+01
4.0306300000000004e+00 1.3880599999999999e+01
2.1372399999999998e+00 1.1987200000000000e+01
ITEM: ATOMS id type x y z vx vy vz
1 1 5.22521 13.8049 2.92677 -0.000900913 -0.00399392 -0.00426137
2 2 5.32923 12.9216 3.25028 0.00889652 0.00972114 -0.00690785
3 2 11.3406 12.7545 2.97937 0.0136396 -0.0256542 0.0069433
4 1 12.5103 9.69892 11.7902 0.000524603 0.00480679 0.00588888
5 2 11.6022 9.93057 11.518 0.0187219 0.00196518 0.003616
6 2 12.5251 8.6829 2.15349 0.0276347 -0.0128384 -0.00118556
7 1 3.02283 7.24839 2.92411 0.003479 -0.00536946 -0.003055
8 2 11.946 7.01908 2.97723 0.00172782 -0.00052018 -0.0142181
9 2 8.80254 8.94673 7.27583 0.00399474 0.00556792 0.00658846
10 1 7.91421 9.30685 6.95677 0.00553406 0.00131225 0.00297833
11 2 7.20457 7.74801 6.99571 -0.0444283 -0.0463915 -0.00430103
12 2 7.45831 9.63663 7.79116 0.00574976 0.00404883 -0.0125685
13 1 6.65122 9.28831 3.85459 0.00210104 0.00242519 0.00267473
14 2 5.89145 8.7706 4.24918 -0.0305866 -0.00749941 0.00250356
15 2 6.99697 8.80581 3.121 0.00793573 0.0116612 -0.00996285
16 1 9.64109 7.31243 10.5553 -0.00198321 0.00221066 0.00217871
17 2 9.96033 7.03366 11.4221 0.00765615 0.00167213 0.00349422
18 2 8.68417 7.24135 10.5408 0.00221139 0.017122 -0.0146643
19 1 4.52452 6.57922 10.5366 -0.00536042 0.00450248 -0.00432517
20 2 3.74409 6.85215 11.0508 0.00535843 0.00663842 0.0135632
21 2 4.49025 8.42264 9.44025 -0.0229366 0.0266331 -0.0170389
22 1 9.91849 9.8443 11.2415 0.00202495 0.00607721 0.0021105
23 2 9.51037 9.83829 2.27938 0.00641842 -0.0161837 -0.0188019
24 2 9.82214 8.92853 10.8591 0.00401426 -0.0127656 -0.0118252
25 1 4.45672 7.95643 5.60783 0.000212759 0.00375357 0.00710614
26 2 3.93 8.25811 6.37594 0.0136683 -0.0116312 0.0165196
27 2 3.75846 6.27798 5.31468 -0.0158641 -0.00969236 -0.017372
28 1 9.97603 7.04642 3.58142 -0.00524123 -0.00194802 -0.00848207
29 2 9.33388 6.40633 3.9822 0.0295277 0.00333189 -0.0115168
30 2 9.78836 7.89208 3.95433 0.0254509 0.0130546 0.0186793
31 1 11.5207 11.1712 5.24666 0.00267834 -0.00229656 -0.002687
32 2 11.215 12.1149 5.15809 -0.0255993 0.00113261 -0.00632316
33 2 12.3804 11.087 4.85816 0.0148113 -0.0264781 0.0087831
34 1 7.53895 4.33966 10.8956 -0.00134923 -0.00130094 0.00380574
35 2 7.84743 13.2257 10.9265 -0.0162712 -0.0467675 0.00845661
36 2 7.08403 4.52897 11.7314 0.0156272 -0.02676 0.00592434
37 1 8.53652 11.9662 10.0493 0.00208075 0.00446741 -0.0014106
38 2 9.12591 12.2981 9.41086 0.0043366 -0.0121501 -0.0212257
39 2 9.20604 11.5324 10.6773 -0.0223864 -0.0600062 -0.031454
40 1 11.0202 4.07575 4.92712 -0.000537935 -0.00389084 0.00244265
41 2 11.8132 4.57626 5.25878 0.00986461 0.0332544 -0.0276773
42 2 10.3574 4.75911 4.80115 0.0101284 0.000978982 0.00719427
43 1 3.58391 5.30553 5.24469 0.00126518 -0.00148051 0.00126944
44 2 3.33619 7.63614 3.76991 -0.0216865 -0.0252319 0.00723478
45 2 4.52002 4.28917 3.50124 -0.0104417 0.00858854 0.0117116
46 1 10.0872 13.4711 7.95384 -0.00213117 -0.00134656 -0.00816343
47 2 9.28718 13.378 7.43363 -0.0068705 0.0360774 0.0206015
48 2 10.6727 12.7317 7.76703 -0.0228919 -0.0240696 0.00668192
49 1 10.9533 6.16607 8.44947 -0.00551861 -0.0015653 -0.00289754
50 2 10.848 5.21793 8.35925 0.00239052 -0.000376113 -0.0144822
51 2 10.7831 6.29001 9.39939 -0.0141019 0.00112801 -0.00888926
52 1 9.38305 9.73484 4.04088 -0.0063771 0.00603673 -0.0053992
53 2 10.0416 9.82421 4.73449 -0.00650279 -0.0170555 0.00250077
54 2 8.51738 9.4528 4.51114 -0.0194876 -0.000203183 -0.00306682
55 1 4.5036 11.151 3.72632 0.00357804 0.0047971 -0.00368875
56 2 5.27707 10.5093 3.72108 -0.0262167 0.00303004 0.0195292
57 2 3.8093 10.7512 3.14809 0.0108364 -0.00566064 -0.0089319
58 1 6.7476 9.92211 9.29358 0.000319737 -0.00828376 -0.00226549
59 2 5.49404 10.521 6.40382 -0.00119036 0.0257759 -0.00486275
60 2 7.2767 10.6726 9.54823 0.0134911 0.0114052 0.00390357
61 1 6.23632 4.68249 8.28263 0.00639485 -0.00150018 0.00553147
62 2 6.67594 4.53796 9.12416 0.0216587 0.00748627 4.35568e-05
63 2 5.31436 4.76675 8.46751 0.00736633 0.00471649 0.00978299
64 1 4.94215 11.2912 6.40958 -0.00249311 0.0026377 0.00426251
65 2 4.83226 11.4458 5.42203 0.014644 0.0132792 0.00481443
66 2 3.91718 12.7478 7.4997 -0.00203569 0.0151999 0.00325598
67 1 11.9749 10.7115 7.96148 0.00134091 -5.25822e-05 -0.000274463
68 2 11.9847 10.7518 6.95217 -0.0280954 -0.0298668 0.000510062
69 2 12.7382 10.2129 8.23188 -0.018559 0.00701035 0.029373
70 1 7.98379 5.31383 4.63048 0.00640027 -0.00609726 0.00218017
71 2 7.89929 4.44079 5.05149 -0.0109474 0.00839714 0.00448267
72 2 7.37761 5.91047 5.1059 0.011568 0.00106925 -0.025738
73 1 10.4334 8.52444 7.12 -0.00174144 0.00320825 -0.000603409
74 2 10.6218 7.69131 7.67881 -0.00478088 -0.0333621 -0.00265174
75 2 10.8446 9.29608 7.56118 0.0032427 0.00394062 0.00847365
76 1 3.74383 13.8186 10.5185 -0.00270741 0.00110744 0.000732157
77 2 12.7586 4.0719 11.0081 0.00657716 0.0324879 0.0254724
78 2 4.52973 5.62255 10.4794 -0.0166568 0.00298757 -0.00795318
79 1 4.03464 9.28865 9.29857 -0.000567555 8.02518e-05 0.00302337
80 2 3.6297 9.52896 10.1849 0.00511308 -0.00599173 -0.0140279