ITEM: TIMESTEP
0
ITEM: NUMBER OF ATOMS
1151
ITEM: BOX BOUNDS pp pp pp
1.6762900000000000e-01 2.2849499999999999e+01
-2.0329000000000000e-01 2.2478600000000000e+01
8.2643499999999995e-02 2.2764500000000002e+01
ITEM: ATOMS id type x y z vx vy vz 
210 3 3.93602 5.14313 2.59753 -0.00300289 0.000390514 0.000820716 
211 4 4.60136 5.30657 3.266 -0.00741717 -0.00115425 0.0319226 
212 4 3.80883 4.19453 2.61241 -0.00853274 -0.0086168 0.00279137 
357 3 5.20446 2.08319 3.25432 0.00869078 -8.12742e-05 -0.000388454 
359 4 4.97014 1.18608 3.49204 0.0200855 0.016284 -0.00375193 
770 4 0.973538 1.29103 4.88715 -0.0184881 0.00484151 -0.00541383 
879 3 2.02428 2.9731 3.17498 -0.000332194 -0.00134141 -0.0052901 
880 4 1.50546 3.75102 2.97031 0.000207551 0.0182179 -0.0248179 
881 4 2.00184 2.45172 2.37255 0.00651654 0.00373731 0.00268892 
1137 3 2.20216 1.87538 0.786535 0.000478078 -0.00293622 0.000121769 
1139 4 3.01473 1.43812 1.04101 0.0218879 0.00417452 -0.0312101 
1142 4 2.24015 3.13202 5.22068 -0.000680271 -0.0155703 0.00103962 
136 4 11.3764 2.30098 0.392246 0.00443605 -0.0205937 -0.00913832 
358 4 5.86642 2.33679 3.89754 -0.00491025 0.00664876 -0.0143005 
411 3 7.041 2.95843 5.13447 -0.00592169 -0.000969113 -0.00784602 
412 4 7.7387 2.43762 5.53223 -0.0114684 0.0141984 0.0150982 
413 4 7.49787 3.67445 4.69309 -0.0121016 0.000410047 0.000826349 
594 3 8.45943 4.91887 3.71002 -0.0038549 -0.00042945 -0.0011797 
595 4 8.42791 5.00362 2.7571 0.0153366 -0.0100253 -0.00194772 
596 4 9.34968 5.18063 3.94491 -0.0126735 -0.0053678 0.00429577 
645 3 9.44016 1.75876 5.03477 0.00589218 0.00188477 -0.00257661 
646 4 9.60919 1.31828 4.20192 0.0159112 0.0241613 0.0184802 
647 4 9.91809 2.5856 4.97028 -0.0205613 0.00858278 -0.00766875 
852 3 9.48712 2.85041 0.253674 -0.00515214 -0.00239854 0.00130591 
853 4 8.70585 2.2992 0.208658 -0.0184896 0.0104295 -0.000423836 
854 4 9.23212 3.58277 0.814792 -0.00681336 0.0181946 -0.0186254 
933 3 9.57522 0.797511 2.48122 -0.00234488 -0.00223827 0.000634318 
934 4 10.2825 0.464489 1.92892 0.0246821 -0.0235222 -0.0110211 
935 4 9.26751 1.58321 2.0293 0.00751642 -0.0327696 0.0116971 
1005 3 11.1563 4.32724 4.84809 -0.00462973 -0.000519082 -0.00071547 
1007 4 10.8851 4.89401 5.57021 -0.00621685 0.00411762 0.0105012 
15 3 16.4528 3.42646 5.26252 0.000866939 0.00479834 -0.000332127 
16 4 16.6698 2.54264 4.96592 -0.0100681 -0.00973972 0.00527785 
17 4 16.4902 3.96161 4.46978 0.00854458 -0.0183743 -0.0148902 
99 3 13.4412 2.54109 3.02241 0.000340003 0.000968322 0.00225117 
100 4 13.3287 2.58637 3.9719 -0.00575078 0.0135266 0.0161143 
101 4 14.0811 3.22471 2.82368 -0.00882623 -0.0144381 0.00374166 
135 3 11.8928 1.60738 0.802686 -0.00342943 -0.00272958 -0.00271096 
137 4 12.1818 1.98337 1.63415 0.0134992 0.0114598 -0.0289458 
241 4 13.449 5.30606 2.26351 0.0140752 0.0160613 0.0168211 
300 3 16.9541 0.851518 4.44088 0.00654235 -0.00917634 0.00317946 
301 4 16.5524 0.655904 5.28743 0.00176715 -0.0104065 0.00256621 
307 4 14.3383 3.51357 5.67254 0.00394549 -0.0161515 -0.0119658 
519 3 17.1395 4.91956 3.14803 0.00614103 0.00266724 -0.00189668 
820 4 16.2311 1.70444 0.627689 -0.00595878 0.0146238 0.015819 
915 3 15.0988 0.37496 2.38772 -0.00415688 -0.0013006 -0.00770186 
916 4 14.4401 1.05603 2.52351 -0.0214133 -0.00382116 -0.00789872 
917 4 15.8074 0.60296 2.98958 0.0194044 -0.0144486 0.0292447 
1006 4 11.9932 3.95998 5.13254 0.0108045 0.0207041 -0.00330876 
1086 3 14.1713 4.66132 0.888904 0.00284722 -0.00119598 0.00252284 
1088 4 14.4508 3.7674 0.691408 -0.00951973 -0.00598288 -0.00693693 
55 4 22.1223 5.19867 3.10563 0.0135316 -0.0142319 -0.00941141 
117 3 18.8265 1.48825 1.60463 -0.0118891 -0.00514459 0.00133332 
118 4 19.6846 1.28317 1.23346 -0.0120032 -0.0104723 0.0229158 
119 4 18.9353 1.35839 2.54672 0.0136217 0.000420352 0.00135798 
302 4 17.5983 0.154969 4.31422 0.0147727 0.00726329 0.0220613 
480 3 21.8562 1.22898 1.40454 0.00127536 -0.000942851 0.00363626 
481 4 22.1623 0.356184 1.15797 0.00925439 0.00660593 0.0103002 
482 4 22.5502 1.81875 1.1099 0.0244385 -0.0143438 -0.0416791 
483 3 19.5156 -0.156693 3.80734 0.00145021 0.00221572 2.53336e-05 
485 4 19.9616 0.179446 4.5847 -0.00601962 0.00889567 -8.51177e-05 
521 4 17.9806 5.34476 3.31517 0.0159085 -0.0214211 -0.00308567 
618 3 19.4052 3.82847 0.605274 0.0044179 -0.00109046 0.00398916 
620 4 19.0132 3.17048 1.1794 0.00283996 -0.000188376 0.0189324 
768 3 22.7478 1.01983 5.02486 0.00360967 -0.0030598 -0.00398888 
769 4 22.7297 0.0997973 4.76133 0.0333687 0.0120131 0.00615062 
936 3 19.7953 4.44326 5.6786 0.00205722 0.00119348 0.000567713 
937 4 19.8871 4.39515 4.72702 0.00845926 -0.0109676 -0.00361473 
987 3 21.8497 3.46583 3.33235 -0.00253632 0.0012422 0.00237546 
988 4 21.9511 3.03798 4.18258 0.0121219 0.0101311 0.0198671 
989 4 21.815 2.74496 2.70356 0.00211718 -0.0146518 0.00132727 
28 4 4.02568 5.86205 0.896589 0.00639951 -0.0142334 -0.0407875 
56 4 0.232513 6.33336 3.71955 -0.0133148 -0.0108485 -0.00421594 
315 3 2.17497 10.5269 4.06812 -0.00384685 -0.00292481 0.00447566 
316 4 2.34871 9.58583 4.04629 0.0042141 -0.012544 -0.00415309 
317 4 1.68451 10.6991 3.26437 0.0246087 -0.00591456 0.0231966 
414 3 2.02201 6.59011 4.23451 -0.000982084 -0.00214502 0.00410851 
415 4 2.64017 6.93714 4.8777 0.00954418 0.0116132 0.0132094 
416 4 2.51007 5.90477 3.77807 0.0149303 0.000689504 0.0304298 
553 4 5.72117 8.07423 1.85858 0.013379 -0.00533447 0.0222886 
717 3 1.31664 10.3342 1.57424 0.00662026 0.00484471 0.00159635 
718 4 1.46489 11.0458 0.95145 0.017576 -0.0180435 -0.0279272 
719 4 0.582102 9.84269 1.20665 0.00541755 0.0135904 -0.000136312 
765 3 4.57944 9.45725 1.57951 -0.00664879 -0.00475726 0.00323508 
766 4 4.14549 9.34614 0.733597 -0.0018423 -0.000481577 -0.0131838 
767 4 4.18944 10.2504 1.94695 -0.0168737 -0.0102889 0.00772262 
790 4 4.75759 7.1559 5.18349 -0.0011352 0.0224532 -0.00912549 
927 3 4.41184 10.5226 5.47338 0.00132347 -0.00516987 0.00562404 
928 4 3.64835 10.4697 4.89848 0.0206036 0.0150861 -0.00603481 
339 3 11.2289 7.49468 1.31243 0.00603057 -0.00228698 0.00553464 
340 4 11.2522 8.44771 1.22632 0.0161843 0.0123976 -0.0115347 
341 4 11.3089 7.33668 2.25311 0.00690143 -0.0221552 -0.0131362 
420 3 6.6354 9.57149 4.46682 -0.00466959 -0.000807222 -0.00603989 
421 4 5.86467 9.95914 4.88147 -0.010795 -0.0204554 -0.00151371 
422 4 6.36058 9.39488 3.56709 -0.00376947 0.0136842 -0.00889871 
453 3 8.8449 5.56338 1.06841 -0.00277798 -0.00104285 0.00245484 
454 4 8.43047 5.78932 0.235684 7.70687e-05 -0.0115867 -0.0248918 
455 4 9.61055 6.13566 1.1185 0.0143443 0.00131481 -0.0169345 
552 3 6.46548 7.48174 1.96431 -0.00217004 -0.00234421 -0.00530798 
554 4 6.75041 7.29243 1.07032 0.00513967 -0.021732 0.0162331 
783 3 9.48068 9.58173 4.11487 0.00137507 0.00456877 0.00340093 
784 4 9.67967 10.4733 4.40068 -0.0184383 -0.0117369 -0.0146418 
785 4 8.58477 9.42791 4.41473 0.00940183 -0.0245201 0.00744678 
822 3 10.9214 7.15095 4.00564 -0.00647357 -0.000598746 -0.00244168 
824 4 10.2188 7.7542 4.24778 0.0251369 -0.0288566 -0.0171375 
849 3 5.99181 6.31269 4.29188 -0.000767721 -0.000117924 -0.00629128 
850 4 6.72259 5.70041 4.37739 -0.0147864 0.00303753 -0.0156706 
851 4 6.19914 6.8263 3.51121 -0.00667717 0.0243238 0.011317 
955 4 10.8719 10.1923 2.41467 0.00419801 -0.00433393 -0.0143862 
956 4 11.5 10.8882 1.22594 0.0107249 0.00325066 -0.00110105 
21 3 16.2598 10.2864 2.53395 0.000630331 -0.00173822 0.00673546 
22 4 16.8312 10.4885 3.27476 -0.0110996 -0.00155011 -0.0107826 
23 4 16.3161 9.33553 2.43983 0.000300808 -0.00414084 0.00932804 
203 4 16.845 10.4601 5.69381 -0.00657264 0.0154891 0.00563888 
240 3 13.2344 5.65905 3.12699 -0.000992202 0.0103735 0.000375216 
242 4 12.2941 5.83365 3.08797 -0.0023287 -0.0123246 -0.00942201 
378 3 15.6067 7.14371 2.65581 0.00102257 -0.00496955 -0.00406044 
379 4 15.3534 7.3741 1.76195 0.00775889 0.00663365 -0.00977557 
380 4 14.8124 6.77594 3.04312 -0.00206996 0.0203929 0.00181087 
503 4 13.4222 10.6025 4.95816 -0.00457231 -0.0315066 0.00902497 
520 4 16.5317 5.64259 2.99293 0.0173146 0.0301756 0.0175631 
823 4 11.7099 7.53451 4.38951 0.013702 -0.0288219 -0.0102569 
954 3 11.7177 10.4533 2.05039 -0.00611099 0.0057738 -0.00423123 
1011 3 14.7694 8.21519 0.221698 0.0061438 0.000462262 -0.00237405 
1012 4 15.0382 9.09205 0.495669 0.0157436 -0.00947514 0.00566179 
1095 3 14.8303 9.06259 4.7896 -0.000635625 0.00456679 0.00207008 
1096 4 15.5549 8.95052 5.40494 0.0251885 0.0225053 -0.0459145 
1097 4 14.9383 8.35033 4.15933 0.000929528 0.00330931 0.0119831 
54 3 22.0886 6.14 3.27588 0.00173122 0.00381306 0.00164506 
129 3 19.4294 6.47128 3.61385 -0.00222296 -0.00596072 0.000730576 
130 4 20.3816 6.39738 3.5506 -0.0093586 -0.0249516 -0.00755031 
131 4 19.167 6.89727 2.79781 0.00807426 -0.00355162 -0.0140927 
201 3 17.4633 10.0762 5.07205 0.000943959 -0.00144461 0.000558412 
202 4 18.302 10.0812 5.53346 0.00619308 -0.0022484 0.000302659 
621 3 22.1088 8.27077 1.30565 -0.00141217 -0.000490541 -0.0057199 
622 4 21.2892 8.62723 0.963107 0.011872 0.0134354 0.0150354 
623 4 21.8494 7.47353 1.76752 -0.00598141 0.0149077 -0.00391546 
810 3 19.3172 8.38074 1.2862 -0.00254326 -0.00513217 -0.00225105 
811 4 19.1299 9.21879 0.863301 0.0115966 -0.00978894 -0.0182094 
812 4 19.0187 7.72299 0.658078 -0.0033275 0.00535551 -0.0164773 
970 4 18.7351 7.15992 5.15444 0.00642385 -0.0035238 -0.000388133 
68 4 5.28909 16.6729 4.49482 0.000761823 -0.00254487 -0.00538794 
165 3 0.651867 13.2785 0.170935 0.00798571 0.00456262 -0.00251265 
219 3 0.833763 14.2987 3.3173 0.000883769 -0.00297335 0.00421333 
220 4 1.22075 15.17 3.2321 0.0155115 -0.0368968 0.000880796 
221 4 0.421262 14.1353 2.46913 0.0126203 -0.00829226 -0.00623487 
540 3 0.865101 12.6632 5.51152 -0.00185804 -0.00935569 0.00329899 
541 4 0.923222 13.2774 4.77969 -0.0220258 0.00643575 -0.0186989 
542 4 1.41559 11.9252 5.24972 0.0372692 0.0320074 0.00979987 
732 3 5.72213 12.9625 4.91891 -0.00675333 -0.00199052 -0.00476391 
734 4 5.22154 12.1743 5.12945 0.0209067 -0.0103747 -0.0309195 
759 3 3.52744 16.5047 1.49932 0.000928205 -0.00436383 0.00498705 
760 4 4.09461 15.756 1.68378 0.00372321 0.00860945 -0.00196901 
761 4 3.02898 16.6327 2.30639 0.0219235 0.00771462 -0.0047631 
808 4 4.66489 14.684 5.37349 0.019853 0.00334424 -0.0147826 
816 3 5.58162 14.5949 1.83275 -0.00685043 0.00656291 0.00727854 
817 4 5.70149 14.4857 0.889392 0.00779135 0.00409554 0.00616767 
153 3 7.36477 12.5025 2.56388 -0.00143095 -0.00101184 0.00014639 
154 4 6.88193 12.1551 1.81393 0.0154768 -0.00242098 0.0269831 
155 4 6.89173 12.1723 3.3277 -0.0211369 0.0169646 0.0216906 
194 4 11.4675 15.332 0.485997 -0.00469055 -0.00328924 -0.0219655 
303 3 10.1385 11.9228 5.44803 -0.00169579 0.00276938 0.00216201 
304 4 10.7033 12.6405 5.1616 -0.0322143 -0.00652693 -0.0140017 
465 3 10.2796 16.6522 4.05865 -0.00316703 -0.00162707 -0.00245838 
466 4 10.1095 16.8024 4.98856 -0.025522 0.00630731 0.00858763 
467 4 9.46132 16.2882 3.72069 0.0247611 -0.00829639 -0.0139907 
729 3 11.4723 14.2124 4.66465 0.00343372 -0.0035855 -0.00930075 
731 4 11.2222 15.1182 4.48199 0.00777934 -0.00583433 0.00672823 
733 4 6.43168 12.9749 5.56126 -0.00051427 0.0270741 -0.0165374 
818 4 6.25075 14.0348 2.22615 0.0139888 0.0179386 0.00147145 
831 3 8.12654 15.33 3.37688 0.00326112 -0.00306694 -0.0041176 
832 4 8.04586 14.3931 3.19865 0.0100543 -0.00225194 0.0126416 
833 4 7.2668 15.5857 3.71114 -0.00852746 -0.00842503 0.0158362 
171 3 15.8965 14.8484 4.69522 -0.00755527 0.00410724 -0.00165107 
172 4 16.3932 14.3323 4.06025 0.0148961 -0.00436268 0.00486309 
173 4 15.4768 14.1975 5.25772 0.0205356 0.00663166 -0.0255149 
282 3 14.3634 12.1488 1.7032 0.00298324 -0.00231833 4.12925e-05 
283 4 13.6828 11.4768 1.66493 0.00895209 -0.00286732 -0.000953699 
284 4 15.1244 11.6991 2.07053 -0.0131231 -0.0274299 3.02674e-05 
312 3 12.2984 13.9547 1.56974 -0.00410174 0.00229365 0.000256902 
313 4 11.8339 13.8559 2.40082 0.0405119 0.00286839 -0.00812878 
314 4 13.1088 13.4589 1.68733 -0.011024 0.000608907 0.0100553 
501 3 13.0163 11.4353 4.71753 0.00946395 -0.00241207 3.92365e-05 
502 4 12.4963 11.2329 3.93979 0.0049534 0.000716364 -5.9943e-05 
663 3 14.384 15.9623 0.786484 -0.000262288 0.00450162 -0.000695063 
664 4 13.9345 15.1172 0.788001 -0.0057496 0.0296639 -0.0371313 
730 4 12.2849 14.2842 5.16548 -0.0168846 -0.00342249 0.0155899 
754 4 15.2182 16.6083 5.19073 -0.0292324 -0.011014 -0.0160187 
826 4 14.1034 12.5221 5.59642 0.00695005 0.0210294 -0.023938 
946 4 16.6873 16.3095 3.24274 0.0148593 -0.0108232 0.00836101 
102 3 19.7768 12.6527 4.49075 0.00285926 -0.00159856 -0.00174319 
103 4 19.5297 11.7368 4.61812 0.0249827 0.00252047 0.0151929 
104 4 19.0555 13.028 3.98566 0.000828485 0.0278034 0.0324002 
348 3 21.1481 14.9867 4.85475 0.00722447 0.00577578 0.0025111 
349 4 21.8161 15.1733 4.19501 -0.00986328 0.0264747 -0.00461167 
350 4 20.8225 14.1159 4.62697 0.0116409 -0.0140225 0.00681448 
423 3 17.7507 13.4771 2.6775 -0.0092023 -0.00540244 -0.00042954 
424 4 17.5411 12.7216 2.1284 -0.00821652 0.0247284 -0.00396463 
425 4 18.163 14.101 2.08003 -0.00547601 -0.0185812 -0.00703426 
516 3 22.3727 16.0954 0.369385 -0.00100369 -0.0054516 0.00540127 
517 4 21.4724 16.1695 0.686126 -0.00679437 -0.0058344 0.0220256 
518 4 22.5501 15.1548 0.368591 0.0368221 -0.0141354 -0.00921411 
705 3 19.6861 16.3614 0.823451 -0.00699553 0.00751164 0.00303003 
707 4 18.837 16.7343 1.06062 -0.00169046 0.00776921 -0.0055495 
98 4 5.2963 21.9471 0.953025 0.00788907 -0.00999957 -0.0183819 
168 3 2.06332 22.044 3.13223 -0.00367164 -0.00330021 0.000449622 
169 4 1.77848 21.4826 3.85329 -0.03376 0.0127573 0.00515708 
170 4 1.34366 22.0089 2.50208 0.00502655 0.011358 -0.000169145 
186 3 0.921092 21.4767 0.783462 -0.00481469 0.00251081 -0.00177111 
187 4 0.374907 20.7039 0.639501 -0.00325051 0.0316223 0.0013871 
188 4 1.61993 21.401 0.133745 0.00149651 -0.0315948 -0.00152809 
270 3 1.38157 17.2974 3.3657 -0.00103714 0.00591731 0.000381751 
271 4 2.10378 17.5712 3.93111 0.00709975 0.0326199 -0.0278387 
272 4 0.645112 17.8468 3.6341 -0.0280115 0.0145859 -0.0261597 
648 3 5.26021 19.3206 2.75385 -0.00576381 0.00200038 0.00504837 
649 4 4.80488 18.9868 1.9809 -0.0355621 0.00861396 -0.00180538 
650 4 5.50366 18.5367 3.24623 -0.0329154 0.0127874 0.003756 
654 3 0.18879 18.9341 0.970584 -0.00303859 0.00479339 0.0103513 
655 4 0.705786 18.1524 1.16531 -0.00187427 -0.0203821 -0.004115 
714 3 4.70707 22.044 3.37628 0.00731024 0.00245715 0.00081174 
715 4 4.86282 21.1566 3.05284 0.00805708 -0.0205496 0.0272522 
716 4 3.7589 22.1592 3.31368 0.00428418 0.00346714 0.00547122 
66 3 6.1124 17.1114 4.28012 0.00404924 0.00496918 0.00688669 
67 4 6.42094 17.4645 5.11459 0.0132915 -0.00603727 -0.00510329 
96 3 6.05756 21.9849 0.37398 5.87079e-06 0.00160316 -0.00311859 
97 4 6.7889 21.6962 0.919896 0.0190677 0.00433271 -0.009277 
120 3 6.9973 21.5407 4.7872 0.00566431 0.00120936 0.00183418 
121 4 7.40721 21.0617 4.06694 0.00549104 -0.0097262 -0.00806057 
122 4 6.1192 21.7488 4.46802 -0.0057535 -0.0231286 -0.016438 
145 4 11.4734 21.2034 3.08075 -0.00785521 -0.0122862 0.0077435 
146 4 11.4714 19.9005 3.8516 -0.0223104 0.00129244 -0.00416303 
205 4 9.74966 19.2575 5.73824 0.0111242 -0.00552101 0.00783517 
399 3 8.35035 20.7478 1.91736 0.00395268 -0.000768833 0.00300232 
400 4 8.96634 21.465 2.06685 -0.0278584 0.0159633 0.0119211 
401 4 8.85868 19.9551 2.0892 0.0283783 -0.0177362 -0.00899638 
861 3 11.386 18.0456 1.81518 0.00255982 -0.00752094 0.000272093 
863 4 11.0927 17.3629 2.41856 0.00554213 -0.0482872 -0.0260404 
972 3 7.80738 17.8815 1.51405 0.00628496 0.000579765 -0.00451034 
973 4 7.3484 18.5864 1.97079 0.0289003 -0.0156795 0.00448868 
974 4 7.63009 17.1005 2.03835 -0.0021085 -0.0436346 0.0246522 
990 3 11.007 20.852 1.08662 0.00962818 0.000568136 -0.00223371 
992 4 11.401 20.0022 1.28345 -0.0241768 0.00635513 -0.0258013 
63 3 17.1028 21.3347 0.636095 8.65277e-05 -0.00166575 0.00964086 
65 4 16.2793 21.4037 1.11916 0.00696976 -0.00167136 -0.00689363 
144 3 11.8096 20.7955 3.87876 -0.0046815 0.000774702 0.00118676 
477 3 14.5043 20.4647 1.58664 0.00361391 0.00296865 0.00110686 
478 4 14.1044 19.7306 2.0528 0.0303716 0.0172193 0.0159 
479 4 14.7466 21.0832 2.27583 -0.021378 0.00176862 -0.0129678 
753 3 14.8682 17.4241 5.54873 -0.00255495 0.00388978 0.000391228 
755 4 14.3864 17.8181 4.82146 0.0312031 -0.00175605 0.0129837 
862 4 11.6148 17.5753 1.01352 -0.0152114 0.0140966 -0.00584586 
902 4 12.3785 21.5012 5.48175 -0.0241795 -0.0294671 -0.00437011 
947 4 17.0445 17.3777 2.23122 0.00820604 0.0238292 0.037948 
991 4 11.7292 21.3773 0.7421 -0.0162442 0.00413012 -0.0138083 
1002 3 13.9844 18.0936 2.72035 0.00235021 -0.000455117 0.00627808 
1003 4 13.049 18.2194 2.56079 -0.0173292 -0.0225103 -0.00142058 
1004 4 14.1921 17.2646 2.28924 -0.00789557 0.00461335 0.018598 
159 3 21.0527 17.7342 5.45093 0.00536787 -0.00037788 6.15639e-05 
160 4 20.1849 18.0615 5.21417 0.00922969 0.00547312 0.00969931 
161 4 21.1331 16.9048 4.98 -0.00702522 -0.0105071 -0.0152633 
213 3 19.8819 21.4576 0.508458 -0.00110395 0.00119448 0.000102137 
214 4 19.0131 21.4262 0.908902 0.00110667 -0.00884117 -0.0241215 
215 4 20.4823 21.2354 1.22006 -0.0122913 -0.00135813 -0.00215894 
255 3 18.9187 18.7444 4.46836 0.000565745 -0.00364306 0.00371867 
256 4 18.3492 17.9871 4.33213 0.0143669 -0.0196355 -0.0159023 
257 4 18.5144 19.2213 5.19316 -0.00301386 -0.018874 -0.016356 
432 3 17.8171 18.7002 0.907185 0.00173013 0.00362747 0.00396723 
433 4 17.8232 19.6334 1.12046 0.00593501 0.0102135 0.0283186 
450 3 22.5171 21.1005 4.44167 0.00373187 -0.00022448 -0.00653209 
451 4 22.5455 20.5138 5.19749 -0.0138526 0.0218377 0.0475927 
452 4 21.6513 20.9576 4.05939 -0.0101489 0.0100142 -0.0289747 
462 3 20.7704 20.0497 2.71674 0.00127396 -0.00334804 0.00440412 
463 4 21.346 19.3636 2.37861 0.00185064 0.0130235 -0.00441168 
464 4 20.0338 19.5761 3.1032 -0.00900248 -0.00604538 0.00896954 
484 4 20.2207 22.1983 3.24861 0.0105539 -0.0210385 -0.0109724 
656 4 22.5059 18.7701 0.100953 -0.00286062 -0.0152407 -0.0232459 
836 4 20.3198 18.2733 0.106522 -0.00500579 -0.0143769 0.013939 
945 3 17.3543 16.9645 3.03713 0.00338701 -0.00431549 0.00213107 
72 3 5.51357 -0.123539 9.03631 -0.00193485 -0.00609644 -0.002876 
111 3 2.2363 1.40668 9.12931 0.00293129 0.00348405 -0.00525794 
112 4 2.85695 0.737214 8.8415 0.0181546 0.00551362 -0.0241509 
113 4 2.63404 2.2345 8.85959 -0.00915718 0.0238099 -0.00992723 
224 4 0.489422 1.50083 9.46656 0.00480389 -0.0059477 -0.0174677 
526 4 2.45618 3.72099 11.2582 2.62014e-05 0.0164607 -0.0116358 
527 4 2.34182 2.21285 11.1924 -0.00223479 0.00887946 -0.00811829 
680 4 0.256197 0.239474 7.3703 0.00921964 -0.0068373 0.0188455 
696 3 0.228789 3.43621 7.52706 -0.00402529 -0.00122443 -0.00342549 
697 4 0.99124 3.0969 7.05827 0.020354 -0.0033608 0.0320259 
864 3 5.77168 4.62128 6.79099 -0.000771936 -0.00287681 -0.00622436 
870 3 4.99218 1.67488 6.95405 -0.00378097 -0.00186829 0.000279734 
871 4 5.46713 2.47063 6.7144 0.0224415 -0.00845884 -0.0120855 
872 4 5.66879 1.0794 7.27628 -0.0173407 0.00148283 0.0215279 
888 3 3.92217 3.6413 9.40111 0.00346507 -0.00607354 0.00198013 
889 4 4.44233 3.80997 10.1867 -0.0204299 0.00115804 0.0120556 
890 4 4.55696 3.65795 8.68487 -0.00333838 -0.00392558 0.00605795 
979 4 3.13964 4.98822 8.21207 0.0157795 0.0264813 0.00367958 
1140 3 2.43155 2.84005 6.11194 -0.00223529 0.00388443 -0.000193834 
1141 4 3.23637 2.32851 6.02926 -0.0150118 8.15148e-07 0.00691904 
73 4 5.86679 -0.0509643 9.92299 0.0238504 -0.0123545 0.0173805 
162 3 7.48172 3.64315 8.63288 -0.000879817 0.00341943 0.00414725 
163 4 7.65626 3.42094 9.54742 0.0148396 -0.00357641 0.00369127 
164 4 8.16254 4.27646 8.40565 0.0114222 0.0145346 -0.00437234 
642 3 9.83681 0.778354 10.4766 0.00558146 0.00205891 -3.8804e-05 
643 4 9.72981 0.408993 9.60005 0.0154252 0.0146215 -0.000680864 
644 4 10.4799 1.47851 10.3651 0.00615198 0.0127814 -0.0138395 
855 3 10.5414 0.60285 7.66822 0.00108174 -0.00373008 -0.00397968 
856 4 11.055 0.142177 7.00474 -0.0225917 0.00293176 0.000889434 
857 4 10.08 1.28653 7.18253 -0.00192692 -0.0133334 -0.00367165 
865 4 6.28335 4.19995 7.48157 0.00427673 0.0259713 0.0154141 
866 4 5.98548 4.12803 5.99901 -0.0146057 0.00825693 -0.0142781 
891 3 9.98295 4.57376 10.5068 0.000389049 -0.00197731 0.0055755 
892 4 9.85319 4.9376 9.63097 0.00859649 0.00827635 -0.0169206 
893 4 9.13362 4.19829 10.7389 0.003009 0.0217225 -0.014523 
1062 3 7.85466 2.90973 11.1208 0.00234457 0.00198785 0.00126681 
1064 4 7.85408 1.99394 10.8423 -0.00480852 -0.00464127 0.0254956 
60 3 12.0348 2.44713 10.747 -0.00343974 -0.000902227 0.00356655 
61 4 11.6165 3.30802 10.7375 0.000408684 0.0192609 -0.0144157 
306 3 13.5189 3.06011 5.87046 0.00483865 0.00123492 0.00441729 
308 4 13.627 2.75067 6.76978 -0.00651846 0.00250744 0.0164121 
473 4 14.5478 5.03007 10.1237 -0.0151776 0.00926899 0.0103024 
669 3 15.5852 0.336631 6.96795 0.00582343 0.00147202 -0.00132022 
671 4 15.0809 0.594112 7.73968 -0.0106693 0.00604106 0.00305315 
777 3 15.7726 3.64543 9.74056 0.00117396 -0.000102469 -0.00045978 
778 4 16.1691 3.52584 8.87761 -0.00252344 -0.00963434 -0.0233209 
779 4 16.2873 3.08471 10.321 -0.00612091 -0.0235933 0.00622781 
1143 3 13.5557 1.76806 8.31966 -0.00271541 -0.000517376 -0.00241535 
1144 4 12.9767 1.02686 8.14187 -0.0354928 -0.0316095 -0.0206315 
1145 4 13.221 2.14414 9.13378 -0.00840651 0.00255186 0.0137601 
222 3 22.3914 1.87858 9.8731 0.00261251 0.00559813 -0.00231985 
223 4 21.9373 2.32103 9.15595 0.0218654 -0.0135879 -0.0118819 
225 3 22.5695 5.20427 10.4876 0.00651774 -0.000556498 0.00628626 
226 4 22.7124 4.58761 9.76964 -0.0102389 -0.00394145 0.000964424 
227 4 21.621 5.33143 10.5095 -0.0100096 -0.00823346 -0.0195906 
556 4 21.1865 0.496703 10.121 0.0268391 0.00242758 0.0152905 
698 4 22.7774 4.31261 7.16597 0.00604169 -0.0365559 -0.00765506 
738 3 18.5403 0.646015 8.27565 0.00134933 -0.00302546 -0.00708472 
739 4 19.1025 1.06432 7.62359 0.0188785 0.0154258 -0.00455811 
740 4 17.6496 0.819203 7.97104 0.00896518 0.0116688 0.0160331 
876 3 17.7131 3.94556 7.72771 0.00245685 -0.00229581 0.000934964 
877 4 17.3116 3.72371 6.88759 -0.00730335 0.0144139 -0.0375543 
878 4 18.553 4.34142 7.49519 0.0370267 -0.0320164 0.0315012 
938 4 20.3167 5.20504 5.93175 -0.00566521 -0.0134363 -0.0153197 
1014 3 19.7321 4.70489 10.0989 0.00640079 0.00255731 -0.00113648 
1015 4 19.0381 4.23213 9.63944 -0.00273637 0.00397839 0.0217878 
1041 3 17.7623 2.06648 10.7343 -0.00362286 0.00203566 -0.00207191 
1043 4 18.3245 1.39463 10.3485 -0.00732965 -0.036194 0.00301968 
1056 3 20.4494 1.91869 6.66802 0.00262404 -0.00390575 -0.00330549 
1057 4 21.3256 1.79016 6.30484 0.0315897 -0.00392395 -0.0192528 
1058 4 20.1044 2.67858 6.19923 -0.0144418 0.00117077 -0.0144469 
150 3 2.99248 7.62601 10.2804 -0.00435869 0.00317324 0.00664494 
151 4 2.70256 7.08165 9.54838 -0.019263 0.00405869 -0.0204407 
152 4 3.90918 7.82121 10.086 -0.0196203 0.00669819 0.00624468 
360 3 1.99812 10.7798 10.1513 -0.000682403 0.00121606 -0.00387403 
361 4 1.12564 10.7384 9.75976 0.0229192 -0.00614775 -0.00553004 
362 4 1.95536 10.1809 10.8967 0.000194095 0.01082 -0.0123738 
567 3 5.63182 7.93949 9.78208 -0.00790613 0.000581554 0.00713953 
627 3 0.508702 6.16743 6.57614 0.00724756 0.00417921 -0.00424316 
628 4 1.09006 6.3693 5.843 0.0267389 -0.0235258 -0.0128513 
629 4 1.08179 5.77841 7.2368 0.0134232 0.0130821 -0.014317 
639 3 3.59894 10.0921 8.05389 -0.0101331 0.00135731 -0.00877404 
640 4 3.61813 9.26914 8.54233 0.00443619 0.0118021 -0.0199897 
641 4 3.02822 10.6631 8.56814 0.00270378 -0.0251189 -0.0025091 
789 3 4.06479 7.42286 5.78764 0.00357275 0.000260627 0.00143683 
791 4 4.33629 8.28691 6.09739 -0.00225188 0.00799748 0.0132148 
929 4 4.06796 10.3355 6.34686 0.00099003 0.00536048 0.0045984 
978 3 2.87002 5.88783 8.02707 0.00759994 0.00185858 0.00115251 
980 4 3.57518 6.24328 7.48612 0.00733419 -0.00749625 -0.00979138 
318 3 11.0362 10.2223 7.37461 -0.00235054 0.00322654 -0.00252797 
393 3 6.82868 7.2505 7.38941 0.00211839 0.00611713 0.00440646 
394 4 6.64433 6.41755 6.95531 0.0452502 -0.0271854 0.0148601 
395 4 6.69391 7.91051 6.70937 -0.0287625 0.0137368 -0.0137447 
495 3 9.05739 8.59242 10.6388 -0.00154611 -0.000779135 -0.00257919 
496 4 8.42417 7.87631 10.6883 0.00148331 -0.019346 0.0105504 
497 4 9.84005 8.25101 11.0714 -0.00848404 -0.00796051 -0.0224912 
529 4 6.1252 10.0364 10.6484 0.011117 0.00382275 -0.0253721 
568 4 6.04013 7.71727 8.94534 -0.0197034 -0.0225467 0.02628 
569 4 5.87749 7.22263 10.3669 0.0139082 -0.012451 0.000127384 
774 3 11.2967 7.2762 8.09214 -0.001475 -0.00810702 -0.000671682 
776 4 10.9506 8.1686 8.10002 0.0362837 -0.00790223 -0.0159799 
1083 3 8.56226 10.7432 9.00378 -0.00176135 0.00118347 0.00213483 
1084 4 8.63518 10.1842 9.77734 -0.00525644 -0.0143548 0.0128488 
1085 4 9.34341 10.5426 8.48822 -0.01568 -0.014519 -0.00911496 
1119 3 9.0602 5.69602 8.24997 -0.00699002 -8.61432e-05 -0.00391823 
1120 4 9.8255 6.20235 7.97761 0.00639078 0.0109012 -0.0112958 
1121 4 8.33445 6.31899 8.21227 -0.0215927 0.0124979 0.00801994 
6 3 13.116 8.0433 10.5081 -0.00102293 0.00282234 0.00117983 
7 4 13.3381 7.15126 10.2413 0.00269007 -0.0117656 0.0110069 
8 4 13.7689 8.26473 11.1722 0.0146494 0.0117433 -0.00317653 
24 3 13.5686 10.9692 9.21024 0.00711362 0.00274542 0.00029 
25 4 13.1615 10.1657 9.53418 -0.0130772 0.00412543 0.0182534 
36 3 16.6703 7.07299 9.44211 0.00438388 0.00430242 0.00321403 
37 4 16.3817 7.79221 10.004 0.0105419 0.00917568 -0.000640871 
38 4 16.6106 6.29573 9.99757 -0.0177295 -0.037773 -0.00647567 
320 4 11.8928 9.904 7.65966 0.0018319 0.0129914 -0.0157426 
342 3 13.2983 6.64056 6.12816 -0.00220995 0.00486279 0.00605655 
343 4 13.9213 7.29606 5.81441 0.00170939 0.00110312 0.0132665 
344 4 13.7564 5.80622 6.02671 0.00514689 0.0106347 0.00178572 
409 4 12.6514 5.60042 10.9973 0.0177231 -0.0102045 -0.00323221 
470 4 17.1682 10.8747 10.7809 0.0173984 0.00247747 0.00815001 
471 3 13.8037 5.52315 9.77795 0.00223436 -5.32996e-05 0.000760318 
472 4 14.0247 5.67852 8.85965 -0.0205796 0.0152305 -0.0281851 
651 3 15.8253 6.75341 6.94123 0.00329262 -0.00251842 -0.00374305 
652 4 15.9518 6.74173 7.88996 -0.0150439 -0.0180186 -0.00941277 
653 4 16.7008 6.90211 6.58416 -0.012779 -0.000208991 -0.0202467 
775 4 12.1922 7.36897 7.76709 -0.0155 0.0152666 -0.00149074 
984 3 15.7663 10.6925 7.33243 -0.00290847 -0.00846573 0.00330005 
985 4 16.3935 10.671 8.05516 -0.0234004 -0.0171756 0.0086695 
986 4 14.9169 10.5414 7.74721 0.00859949 0.00624598 0.00806707 
245 4 21.9691 10.6838 10.9608 0.00316205 0.00251629 0.00930379 
294 3 22.2029 10.3375 8.94539 0.00277423 0.0023672 0.00494601 
295 4 22.0436 9.66174 8.28641 -0.00278521 0.0090562 -0.00643212 
397 4 20.5669 7.88665 10.8207 0.0223258 0.00833532 0.00783054 
417 3 19.4732 7.15334 8.75416 0.00388041 -0.00284777 -0.00177342 
418 4 18.8654 7.64824 9.30358 -0.00714244 0.0222424 0.0203666 
419 4 19.0371 7.09744 7.90393 0.00712517 0.00206828 0.0112763 
468 3 17.6684 11.0332 9.98034 -0.00247681 0.000866337 -0.00475302 
600 3 19.8679 10.1274 6.30339 -0.00596968 -0.00199663 0.00547621 
601 4 20.2992 10.8526 6.75538 0.0140921 -0.0208604 -0.00244534 
602 4 20.4448 9.37746 6.44795 -0.00389468 0.0229684 -0.0190113 
903 3 21.5699 8.18454 7.21645 -0.00128828 0.00577132 -0.00285166 
904 4 22.1927 7.56946 6.82913 -0.0106928 0.028879 -0.00639066 
905 4 21.0379 7.64882 7.80489 -0.0159727 0.011215 0.0133472 
969 3 18.7838 7.34641 6.09202 -0.00297839 -0.00725556 0.00095598 
971 4 19.3802 8.0922 6.15767 -0.0044216 -0.0104369 -0.00326484 
1016 4 19.7878 5.54736 9.64796 0.0212634 0.00410339 0.0170014 
39 3 4.36153 13.6274 9.76064 -0.00236476 -0.00711578 -0.00183147 
40 4 5.1095 14.02 9.31047 -0.00176415 -0.00457837 -0.0173478 
41 4 4.71732 12.8428 10.1779 -0.00153762 0.0159904 -0.0210496 
364 4 2.44674 16.546 8.5857 0.00124928 -0.0073512 0.0139924 
376 4 4.29683 14.4217 11.3603 0.00115364 0.00417254 0.00515923 
498 3 1.54668 15.1873 6.97868 0.000257849 -0.000211528 -0.00152333 
499 4 2.33689 15.4992 6.5376 -0.0116063 -0.0316957 0.00975474 
500 4 1.48201 14.2649 6.73145 0.0144862 0.012561 0.021819 
549 3 1.65047 16.4881 11.4229 0.00945417 -0.00686594 -0.0018353 
550 4 0.961409 16.3368 10.7759 0.0146273 -0.0247011 0.0185693 
560 4 5.72062 16.5361 9.76019 -0.0232509 0.0123345 0.0296082 
593 4 0.905237 13.3521 10.943 0.0203673 0.0153937 -0.000209213 
807 3 4.3749 15.3309 6.01666 -0.00207381 -0.00460996 -0.00649151 
809 4 4.83205 15.0898 6.82236 0.00664985 0.00874465 0.00936412 
923 4 0.243675 15.9191 8.47883 -0.00751963 0.0234488 0.0164377 
128 4 11.2965 15.2068 10.9735 0.0112005 0.00990443 -0.0187753 
305 4 10.7369 11.2911 5.84707 0.0291114 0.00545031 0.0187727 
319 4 11.0885 11.173 7.47331 0.0125549 -0.0146469 0.00922134 
510 3 7.12722 12.7858 10.1974 0.00577464 -0.00440042 3.22512e-05 
511 4 7.54854 13.6328 10.3437 0.00154377 -0.000731293 -0.00617069 
512 4 7.76963 12.2812 9.69852 -0.00185404 0.0184842 -0.0228307 
530 4 6.7983 11.2543 11.2446 0.00686155 0.0239137 0.00743229 
780 3 11.4539 12.9155 8.02077 0.00175404 -0.00197113 0.00283593 
781 4 10.9639 13.3867 8.69459 -0.0231062 -0.00227218 -0.0146832 
792 3 7.81611 12.6602 6.60711 -0.00125511 -0.000511775 -0.000667438 
793 4 8.33644 12.2656 5.90727 0.00758346 -0.0156214 -0.0336215 
794 4 7.84513 12.0199 7.31798 0.00773453 -0.00948571 -0.0176869 
885 3 8.60681 14.8519 10.9025 -0.00679829 -0.00191357 0.00162402 
886 4 9.21788 15.5558 11.1201 0.00138967 -0.0386481 -0.00107375 
960 3 11.1079 16.6129 8.39744 -0.000457124 0.00629098 -0.0096645 
962 4 11.458 16.5373 9.28508 0.0153864 -0.00725892 0.00147143 
1098 3 8.24652 16.4155 8.33825 -0.00437433 0.00205015 0.00704113 
1100 4 8.66329 16.0239 9.10584 0.0343973 0.0261754 -0.00288782 
1134 3 6.31952 14.684 7.75554 -0.00166902 0.00470878 0.00038683 
1135 4 7.02172 15.2268 8.114 0.0158657 0.0181565 0.0267558 
1136 4 6.76636 13.9118 7.40869 -0.00032001 0.010957 -0.0010112 
26 4 13.4011 11.6162 9.89548 0.000252106 -0.00337638 -0.0172194 
44 4 16.8419 16.53 6.73311 -0.0125427 -0.0294636 -0.00364188 