ITEM: TIMESTEP
0
ITEM: NUMBER OF ATOMS
96
ITEM: BOX BOUNDS pp pp pp
2.9236100000000000e+00 1.2773600000000000e+01
4.0306300000000004e+00 1.3880599999999999e+01
2.1372399999999998e+00 1.1987200000000000e+01
ITEM: ATOMS id type x y z vx vy vz
1 1 7.29523 12.6595 3.2189 0.00107606 0.00236212 0.00318592
2 2 6.58384 12.1279 2.85617 -0.00472991 -0.0109803 0.0166486
3 2 9.20688 13.2164 11.2043 -0.0100647 0.0240427 0.00492452
4 1 12.416 10.1012 2.29472 -0.000889023 -0.0018476 -0.00531166
5 2 11.5835 10.6404 11.8374 0.000718687 0.00448283 0.00889677
6 2 12.1001 9.3475 2.82189 0.0132499 -0.022326 0.016285
7 1 12.1897 7.73125 3.98212 0.000558445 0.00246008 0.00521457
8 2 11.376 7.21487 4.07015 0.0147471 -0.0118423 -0.0133921
9 2 8.01339 8.42663 8.20167 0.00118508 0.0114847 0.0088882
10 1 7.41455 7.86085 8.74761 0.00597776 0.0114896 0.000782385
11 2 6.93316 7.49723 8.04017 0.0192793 -0.0259866 0.014809
12 2 6.67952 9.26223 9.2708 -0.0105477 0.0162749 -0.00822788
13 1 5.75225 8.65967 2.269 0.00550916 0.00475326 0.00131157
14 2 6.08187 8.87698 11.2621 -0.000407454 0.0103861 -0.0313848
15 2 5.47864 7.73803 2.19777 -0.0121262 -0.0544375 -0.0184828
16 1 9.72529 8.01505 10.9829 -0.00183778 -0.00201323 -0.00283534
17 2 9.66742 7.56601 11.8902 -0.00949812 0.0104106 -0.0111626
18 2 8.81264 7.85209 10.7132 0.00125461 0.0228376 0.0197393
19 1 4.76751 5.72724 11.4787 0.00155394 0.00352416 0.000744091
20 2 4.53956 5.53815 2.60099 0.000926482 -0.00113092 0.0150356
21 2 11.3272 8.88318 10.2058 -0.0192274 -0.0162456 0.0228156
22 1 9.96782 10.8127 11.6157 0.00211214 0.00237764 0.000256685
23 2 9.67663 10.7581 2.73373 -0.0165392 -0.00955762 0.00915291
24 2 9.8446 9.8835 11.3673 0.00509255 -0.0303266 -0.00331529
25 1 3.40971 8.35635 6.35325 0.0037894 -0.000302836 -0.0028859
26 2 3.78498 9.20992 6.43154 0.00375287 -0.0193423 0.0205148
27 2 3.50444 6.50106 4.00408 -0.0150117 -0.0139446 -0.00669964
28 1 9.51389 7.10789 4.23716 -0.00306321 -0.00841789 0.00620845
29 2 9.15098 6.84161 5.06137 -0.00515874 -0.00349136 0.00735861
30 2 9.20891 8.02278 4.10467 -0.00556615 -0.011828 0.0117907
31 1 3.78117 11.2679 5.76982 0.00100985 0.00063773 -0.00320878
32 2 3.35959 12.6723 5.25994 0.0184957 -0.00920219 0.0339815
33 2 4.35052 11.0989 4.97297 -0.00527044 -0.0126024 -0.00586129
34 1 7.76738 5.03076 9.05922 0.000644552 -1.29082e-05 -0.00766542
35 2 7.9801 4.09785 9.20854 -0.00908662 0.02946 0.00446116
36 2 7.61536 5.4761 9.91991 0.0277602 -0.0051994 0.0140623
37 1 8.02436 12.0313 10.1437 -0.00160466 -0.00790485 0.000999275
38 2 9.18138 12.0716 8.96096 -0.0303294 -0.00466987 -0.0120073
39 2 8.59818 11.6571 10.8254 0.00359368 0.00698239 0.00651447
40 1 12.6485 13.5997 5.27661 -0.00351175 -0.00220127 -0.00132466
41 2 3.62426 5.01224 4.39263 0.0112356 -0.00419978 0.016616
42 2 11.7538 13.311 5.02598 -0.0110769 0.0103441 -0.0131324
43 1 4.19131 5.80218 4.21674 -0.00150589 -0.00601686 0.000687777
44 2 12.3576 8.22362 4.81242 0.000782343 0.0325833 0.0108238
45 2 7.36967 12.4725 4.15743 0.00662401 0.0437912 0.00836823
46 1 9.48128 12.3591 8.0373 0.00624728 0.0015557 -0.00217342
47 2 8.29442 12.2567 6.81402 0.0124665 0.0266703 -0.0114044
48 2 10.258 11.788 7.76612 -0.0103267 -0.000223152 0.00769028
49 1 10.4475 6.70489 8.52665 -0.000396648 0.000613123 -0.00179651
50 2 9.46119 6.47669 8.54197 0.00167423 -0.00925753 0.0160576
51 2 10.422 7.32386 9.30374 0.00327902 0.00816956 -0.0138511
52 1 9.20035 10.3465 4.41108 -0.00302086 0.00348106 0.000802066
53 2 8.96511 10.055 5.29132 0.0212274 -0.00501632 0.0033245
54 2 8.94841 11.244 4.35218 0.0115279 0.00203653 0.0182279
55 1 4.85165 11.029 3.286 -0.00742069 -0.000601123 -0.00130985
56 2 5.2275 10.1805 2.98242 0.00860563 -0.00399876 -0.00191696
57 2 3.93407 10.9612 2.99934 -0.00522174 -0.0203882 0.0163547
58 1 6.23149 10.1277 9.46284 0.000374347 -0.00321971 0.000762744
59 2 5.02597 13.1187 7.82598 -0.00178907 0.00751024 0.00573468
60 2 7.32413 11.3149 9.8302 -0.0188862 0.00528391 -0.0178442
61 1 8.29286 5.29125 6.41004 0.00193861 0.000742844 -0.00357671
62 2 8.59266 5.44393 7.36965 0.0149918 -0.0237636 0.00524944
63 2 7.49123 5.80419 6.21157 -0.0187679 0.0166799 0.0135173
64 1 5.4695 12.2292 7.56732 -0.000884928 -0.00029905 0.00576681
65 2 4.60725 11.661 6.62721 -0.0188936 -0.00946813 0.0169956
66 2 3.45644 4.53386 6.91855 -0.0146383 0.00664045 -0.0161403
67 1 11.6274 10.6036 7.45808 -0.00128696 0.00440185 -0.00120436
68 2 12.3247 10.4667 6.74972 -0.00504874 0.0158923 -0.0180976
69 2 11.852 9.9574 8.17981 -0.0258796 -0.0357486 -0.00320553
70 1 10.0023 13.3142 4.22259 -0.00423039 -0.0013417 -0.00555918
71 2 9.82888 13.655 3.30972 -0.00132981 -0.00245809 -0.00402241
72 2 9.19032 13.456 4.62604 0.0180843 0.0128414 0.00918362
73 1 9.318 9.31109 7.0421 -0.00260364 0.00382843 0.00249305
74 2 9.75551 8.4846 6.85497 -0.00423819 0.000691672 -0.0134752
75 2 10.0538 9.99897 7.21424 0.00316486 0.00778736 -0.0131436
76 1 12.1979 4.91896 9.90502 -0.00118621 -0.00287032 3.63425e-05
77 2 11.7111 5.39529 9.23948 -0.011751 -0.00930239 0.00448285
78 2 4.01041 5.61064 10.9269 0.0136111 0.00774441 0.0142666
79 1 12.1768 8.88734 9.68108 0.00684888 0.00682504 -0.00326564
80 2 3.03521 9.17096 10.2973 0.0224168 -0.0158985 -0.0211754
81 2 6.06356 10.5001 8.60196 0.0104739 -0.0127675 -0.0220043
82 1 7.5953 5.48831 11.6741 0.00237157 -0.00558043 0.000545214
83 2 7.67306 4.62271 2.31572 0.00591113 0.00539146 -0.010232
84 2 6.6154 5.62271 11.7465 -0.00687656 -0.00693155 0.000949901
85 1 9.80479 4.10849 11.3273 0.00186347 0.00140594 -0.00156113
86 2 9.26479 4.86705 10.9756 0.0188933 -0.0288451 0.00666948
87 2 11.4332 4.48668 10.4722 0.00858102 0.00205654 -0.00985121
88 1 7.64408 12.5178 6.11529 -0.00798378 0.0022594 0.00885197
89 2 6.43275 12.5564 6.90926 -0.00778207 0.00570978 0.0206854
90 2 7.82387 13.5403 6.03475 -0.0263364 -0.0133303 -0.00541934
91 1 5.96948 6.46518 6.34225 0.0055937 -0.00192085 -0.00190802
92 2 4.11009 7.72925 6.32626 -0.019886 0.00958041 0.0169824
93 2 5.4798 5.90319 6.95653 -0.00707505 -0.00439084 0.0206689
94 1 4.10758 4.68752 7.71659 -0.00408848 -0.000635665 -0.00265852
95 2 3.52294 4.71027 8.48148 0.0240816 -0.00922871 0.00744825
96 2 5.67214 6.15839 5.42312 0.0106598 -0.0049827 -0.0184118
ITEM: TIMESTEP
1
ITEM: NUMBER OF ATOMS
96
ITEM: BOX BOUNDS pp pp pp
2.9236100000000000e+00 1.2773600000000000e+01
4.0306300000000004e+00 1.3880599999999999e+01
2.1372399999999998e+00 1.1987200000000000e+01
ITEM: ATOMS id type x y z vx vy vz
1 1 7.2958 12.6607 3.22046 0.00121129 0.00253925 0.00304845
2 2 6.58131 12.1223 2.86529 -0.00520199 -0.011378 0.0199916
3 2 9.20212 13.2283 11.2068 -0.00924616 0.0226604 0.00526735
4 1 12.4155 10.1003 2.29204 -0.00101293 -0.00180947 -0.00538862
5 2 11.5848 10.6419 11.8424 0.00438075 0.0016302 0.0112203
6 2 12.1068 9.3365 2.82997 0.0137685 -0.02092 0.0154786
7 1 12.19 7.7325 3.98464 0.000712485 0.00255533 0.00487422
8 2 11.3824 7.20897 4.06393 0.0108265 -0.0116061 -0.0112264
9 2 8.01442 8.43233 8.20684 0.00296872 0.0114093 0.0114894
10 1 7.41764 7.86666 8.748 0.00636169 0.0117288 0.000791273
11 2 6.94128 7.4829 8.04681 0.0134311 -0.0312065 0.0117441
12 2 6.67461 9.26953 9.26679 -0.00878925 0.0123429 -0.00766261
13 1 5.75502 8.66201 2.26971 0.0055546 0.00446796 0.00141442
14 2 6.08165 8.88228 11.2457 -0.000979643 0.0105632 -0.0330094
15 2 5.47252 7.71085 2.18823 -0.0116788 -0.0518922 -0.0194161
16 1 9.7243 8.01399 10.9816 -0.00207179 -0.00220863 -0.00228214
17 2 9.66318 7.5721 11.8829 -0.00744381 0.0136631 -0.01735
18 2 8.81363 7.86368 10.7227 0.00208772 0.0234209 0.0178345
19 1 4.76837 5.72903 11.4791 0.00192558 0.00364849 0.00092173
20 2 4.53965 5.53769 2.60797 -0.000469643 -0.000630598 0.0125884
21 2 11.3192 8.87505 10.2169 -0.0115025 -0.0161649 0.0208316
22 1 9.96883 10.8139 11.6159 0.00189594 0.00223828 0.000522177
23 2 9.66874 10.7541 2.73785 -0.0148232 -0.00657664 0.00675825
24 2 9.84716 9.86747 11.3646 0.00530534 -0.032463 -0.00698384
25 1 3.4115 8.35617 6.3518 0.00329191 -0.000416914 -0.00290171
26 2 3.78769 9.20105 6.44168 0.00731431 -0.0155164 0.0201407
27 2 3.49701 6.49526 4.00081 -0.0145715 -0.00937445 -0.00629596
28 1 9.51239 7.10373 4.24019 -0.0029437 -0.0082223 0.00591769
29 2 9.14801 6.83965 5.06561 -0.00666004 -0.00443275 0.00953879
30 2 9.20625 8.01638 4.11113 -0.00506978 -0.0136133 0.0139409
31 1 3.78183 11.2682 5.76827 0.00161372 0.000678427 -0.00297004
32 2 3.36841 12.6684 5.27742 0.0161949 -0.00594528 0.0356657
33 2 4.34759 11.0926 4.97055 -0.00621951 -0.0125466 -0.00386127
34 1 7.76774 5.03076 9.05532 0.000776169 6.69124e-05 -0.00790732
35 2 7.97543 4.11272 9.21119 -0.00928701 0.0287802 0.00606757
36 2 7.62919 5.47306 9.92722 0.0275214 -0.00681854 0.0148351
37 1 8.02347 12.0274 10.1441 -0.00195391 -0.00785987 0.000731861
38 2 9.16628 12.0692 8.95458 -0.0300446 -0.00502687 -0.013421
39 2 8.59988 11.6595 10.829 0.00306043 0.00260838 0.00787802
40 1 12.6468 13.5985 5.27594 -0.0034457 -0.00243205 -0.00133777
41 2 3.62999 5.00903 4.40157 0.0115395 -0.00878546 0.0191444
42 2 11.7479 13.3168 5.01928 -0.0118459 0.0125954 -0.0135682
43 1 4.19056 5.79916 4.21705 -0.00149901 -0.00603838 0.000562837
44 2 12.3581 8.23973 4.81866 0.000869552 0.0312192 0.0134915
45 2 7.37237 12.494 4.16118 0.00413339 0.042305 0.00672746
46 1 9.48447 12.3599 8.03618 0.00649814 0.00148008 -0.00231258
47 2 8.3017 12.2693 6.80969 0.01673 0.0234326 -0.00576286
48 2 10.2519 11.7886 7.77061 -0.0135159 0.0021321 0.0100888
49 1 10.4471 6.70521 8.52584 -0.00117315 0.000641692 -0.00145618
50 2 9.46398 6.472 8.5495 0.00935119 -0.00949556 0.0140583
51 2 10.4247 7.32736 9.29577 0.00755494 0.00595658 -0.0178774
52 1 9.19886 10.3481 4.41142 -0.00293643 0.00307893 0.000544021
53 2 8.97569 10.0525 5.29388 0.0210525 -0.00492125 0.0069552
54 2 8.95377 11.2464 4.36178 0.00987825 0.00758707 0.0201957
55 1 4.848 11.0288 3.2854 -0.00717062 -0.000412835 -0.00110854
56 2 5.2326 10.1778 2.98144 0.0116533 -0.00661585 -0.00194947
57 2 3.92982 10.9513 3.00706 -0.011896 -0.0191584 0.01447
58 1 6.23167 10.1261 9.46327 0.000306155 -0.00300604 0.000913738
59 2 5.02521 13.1219 7.82809 -0.00125501 0.00514485 0.00270696
60 2 7.31551 11.3178 9.82201 -0.0152591 0.00644306 -0.0146314
61 1 8.294 5.29155 6.40828 0.00257224 0.000468494 -0.00347159
62 2 8.59875 5.43164 7.37104 0.00920263 -0.0253235 -2.9603e-05
63 2 7.48091 5.81323 6.2189 -0.0217646 0.0190212 0.016045
64 1 5.46915 12.2291 7.57017 -0.00053163 -9.677e-05 0.00564422
65 2 4.59621 11.656 6.63398 -0.0249805 -0.0104829 0.00994954
66 2 3.4506 4.53722 6.91183 -0.00864742 0.00679729 -0.0103065
67 1 11.6268 10.6058 7.45749 -0.00116352 0.00430889 -0.00112166
68 2 12.3217 10.475 6.74105 -0.0071437 0.0170887 -0.0161138
69 2 11.8392 9.93956 8.17821 -0.0250379 -0.0351023 -0.00382146
70 1 10.0003 13.3135 4.21973 -0.0038761 -0.00135271 -0.00587153
71 2 9.82881 13.6535 3.30793 0.000878919 -0.0033765 -0.00320536
72 2 9.19789 13.4626 4.632 0.0119167 0.0136176 0.0147247
73 1 9.31669 9.31306 7.04334 -0.00262251 0.0040391 0.00246363
74 2 9.75385 8.4849 6.84841 -0.00249684 0.000698805 -0.0127297
75 2 10.0547 10.0017 7.20732 0.00052858 0.00321623 -0.0145126
76 1 12.1972 4.91743 9.90516 -0.00158643 -0.00322969 0.00049757
77 2 11.7047 5.39147 9.24126 -0.0136114 -0.00592678 0.00251262
78 2 4.0162 5.61406 10.9339 0.00902254 0.00585044 0.0133619
79 1 12.1802 8.89078 9.67947 0.00667207 0.00691915 -0.00317741
80 2 3.04508 9.16294 10.2867 0.0170743 -0.016064 -0.020961
81 2 6.06819 10.4946 8.59032 0.0080042 -0.00931834 -0.0239688
82 1 7.59641 5.48547 11.6745 0.00202705 -0.00573794 0.000843008
83 2 7.67642 4.62597 2.31004 0.00755146 0.00715209 -0.0122123
84 2 6.61235 5.61966 11.7465 -0.00505134 -0.00535546 -0.000955874
85 1 9.80573 4.10926 11.3265 0.0019323 0.00162854 -0.0016823
86 2 9.27473 4.85213 10.9794 0.020291 -0.0294393 0.0080971
87 2 11.4394 4.48866 10.466 0.0159238 0.00552624 -0.0143754
88 1 7.64008 12.519 6.11962 -0.00801141 0.0025387 0.00843755
89 2 6.42639 12.5585 6.92114 -0.0176966 0.00249579 0.0268012
90 2 7.81057 13.534 6.03234 -0.0268349 -0.0114196 -0.00438516
91 1 5.97223 6.46425 6.3412 0.00537279 -0.00182054 -0.00227311
92 2 4.10118 7.73381 6.33473 -0.0149859 0.00788392 0.0168638
93 2 5.47607 5.90067 6.96682 -0.00745885 -0.00525629 0.0197122
94 1 4.10547 4.68718 7.71512 -0.00431549 -0.00072866 -0.00324801
95 2 3.53482 4.70561 8.48587 0.023092 -0.0094087 0.0101243
96 2 5.67734 6.15634 5.41541 0.0101115 -0.00317171 -0.0119192
ITEM: TIMESTEP
2
ITEM: NUMBER OF ATOMS
96
ITEM: BOX BOUNDS pp pp pp
2.9236100000000000e+00 1.2773600000000000e+01
4.0306300000000004e+00 1.3880599999999999e+01
2.1372399999999998e+00 1.1987200000000000e+01
ITEM: ATOMS id type x y z vx vy vz
1 1 7.29644 12.662 3.22195 0.00132192 0.00270315 0.00287996
2 2 6.57864 12.1165 2.87616 -0.0053077 -0.0114491 0.0235771
3 2 9.19763 13.2391 11.2096 -0.00892443 0.0198884 0.00567855
4 1 12.415 10.0994 2.28933 -0.00112046 -0.00186179 -0.00539789
5 2 11.5879 10.642 11.8486 0.00751046 -0.00124274 0.0135392
6 2 12.1139 9.32658 2.83737 0.0144707 -0.0181232 0.0136818
7 1 12.1904 7.73381 3.98699 0.000905301 0.00269906 0.00459271
8 2 11.3868 7.20326 4.05892 0.00693651 -0.0109986 -0.00861945
9 2 8.01636 8.43804 8.21316 0.0047885 0.0114479 0.0134023
10 1 7.42091 7.87258 8.7484 0.00670759 0.0119096 0.000816798
11 2 6.94659 7.46602 8.05191 0.00830811 -0.0359066 0.00892156
12 2 6.67073 9.27457 9.26314 -0.00649992 0.00744779 -0.00681797
13 1 5.7578 8.66414 2.27041 0.00557362 0.00395348 0.00131934
14 2 6.08089 8.88754 11.2291 -0.00249031 0.0102399 -0.0319532
15 2 5.46696 7.68614 2.17835 -0.00998626 -0.0449943 -0.019799
16 1 9.72322 8.01284 10.9806 -0.00223009 -0.0023333 -0.0017774
17 2 9.65998 7.57967 11.8729 -0.00535556 0.0161787 -0.022117
18 2 8.81473 7.87551 10.731 0.00168213 0.0238044 0.0154431
19 1 4.76944 5.73089 11.4796 0.00234059 0.00377992 0.0011831
20 2 4.53909 5.53752 2.61358 -0.00166461 -1.99098e-05 0.00963227
21 2 11.3157 8.86702 10.2266 -0.00183856 -0.0158189 0.0178762
22 1 9.96972 10.8149 11.6162 0.00163096 0.0019255 0.000805775
23 2 9.66181 10.7515 2.74049 -0.0127713 -0.00356568 0.0033809
24 2 9.84991 9.85104 11.3603 0.0058403 -0.0319784 -0.00989676
25 1 3.413 8.35593 6.35035 0.00268016 -0.000507048 -0.00293104
26 2 3.79229 9.1944 6.45168 0.0111945 -0.010672 0.0199755
27 2 3.48987 6.49169 3.99778 -0.013842 -0.0051734 -0.00568452
28 1 9.51095 7.09967 4.24308 -0.00282631 -0.0080439 0.00565621
29 2 9.14432 6.83718 5.07091 -0.0080021 -0.00550006 0.0114864
30 2 9.20384 8.00917 4.11861 -0.00461912 -0.0150148 0.0158441
31 1 3.78278 11.2686 5.76685 0.00217709 0.000686224 -0.00268706
32 2 3.37578 12.6664 5.29561 0.0127809 -0.0020971 0.0367804
33 2 4.3443 11.0864 4.96911 -0.00664316 -0.0123722 -0.00204238
34 1 7.76816 5.03083 9.05131 0.000872321 0.000283847 -0.00808877
35 2 7.97081 4.12663 9.21461 -0.00889715 0.0256271 0.00747694
36 2 7.64288 5.46928 9.93475 0.0272204 -0.00813024 0.0148605
37 1 8.02241 12.0234 10.1444 -0.00230176 -0.00780137 0.000459052
38 2 9.15134 12.0666 8.94754 -0.0297288 -0.00543564 -0.0146339
39 2 8.60124 11.6597 10.8333 0.00221321 -0.00198448 0.00889744
40 1 12.6451 13.5973 5.27527 -0.00339438 -0.00263018 -0.00133969
41 2 3.6358 5.00345 4.41177 0.0116319 -0.0134753 0.0216314
42 2 11.742 13.3236 5.01241 -0.0115078 0.0143408 -0.0138246
43 1 4.18981 5.79614 4.2173 -0.00149715 -0.00601863 0.000423939
44 2 12.3585 8.25484 4.82591 0.000405233 0.0285873 0.0148276
45 2 7.3738 12.5148 4.16416 0.00161938 0.0406519 0.00533158
46 1 9.48778 12.3606 8.03499 0.00667435 0.00146885 -0.00243402
47 2 8.31115 12.2801 6.80826 0.0209015 0.0199976 -8.76293e-05
48 2 10.2445 11.7901 7.77621 -0.0154732 0.00354179 0.0120828
49 1 10.4463 6.70553 8.52519 -0.00190587 0.000647876 -0.00115523
50 2 9.47054 6.46719 8.55603 0.0164729 -0.00974897 0.0120702
51 2 10.4296 7.32982 9.28586 0.0117113 0.00413646 -0.0214219
52 1 9.19741 10.3496 4.41162 -0.00285301 0.00267482 0.000285946
53 2 8.98616 10.0501 5.29828 0.0208859 -0.0048204 0.0104717
54 2 8.95829 11.2516 4.37238 0.00825306 0.0131914 0.0221681
55 1 4.84448 11.0286 3.28489 -0.00689592 -0.000273385 -0.0009217
56 2 5.23915 10.1739 2.98047 0.0142878 -0.00862108 -0.00187627
57 2 3.92217 10.942 3.01381 -0.0184883 -0.0180611 0.0125182
58 1 6.2318 10.1247 9.46375 0.000187716 -0.00271087 0.000970426
59 2 5.02471 13.1238 7.82869 -0.000852958 0.002636 -0.000182348
60 2 7.30887 11.3213 9.81557 -0.0111266 0.00755822 -0.0109194
61 1 8.29543 5.29172 6.40657 0.00313473 0.000242687 -0.0033607
62 2 8.60186 5.41861 7.36962 0.00318742 -0.026748 -0.00576396
63 2 7.46947 5.82321 6.22762 -0.0232318 0.0203724 0.0189876
64 1 5.46897 12.2291 7.57296 -0.000220735 0.000119737 0.0055463
65 2 4.58227 11.6505 6.63716 -0.0304878 -0.0115089 0.00259253
66 2 3.44779 4.54066 6.90824 -0.00270707 0.00692996 -0.00383505
67 1 11.6262 10.6079 7.45696 -0.00103267 0.00415738 -0.00100532
68 2 12.3176 10.4838 6.73361 -0.00956032 0.0179717 -0.0132732
69 2 11.827 9.9223 8.17599 -0.0240123 -0.0334144 -0.00567235
70 1 9.99842 13.3128 4.21672 -0.00348445 -0.00138835 -0.00615862
71 2 9.82976 13.6516 3.30651 0.00273562 -0.00414385 -0.00253062
72 2 9.20224 13.4696 4.64076 0.00555882 0.0146497 0.0201417
73 1 9.31538 9.31513 7.04456 -0.00262786 0.00422086 0.0024239
74 2 9.75301 8.4853 6.84224 -0.00100509 0.00107188 -0.0118971
75 2 10.0543 10.0022 7.19973 -0.00195241 -0.00118963 -0.0157762
76 1 12.1963 4.91573 9.90552 -0.00193181 -0.00354034 0.000891366
77 2 11.6975 5.38936 9.24199 -0.0151185 -0.00253906 0.000428873
78 2 4.01943 5.61649 10.9403 0.00358599 0.00382758 0.011766
79 1 12.1835 8.89426 9.6779 0.00635954 0.00698521 -0.00307804
80 2 3.05228 9.1549 10.2763 0.0119031 -0.0159844 -0.0201827
81 2 6.07156 10.4908 8.57799 0.00553255 -0.00597215 -0.0246341
82 1 7.59733 5.48257 11.6749 0.00163645 -0.00581469 0.00110495
83 2 7.68061 4.62986 2.30351 0.00920223 0.00787563 -0.0135634
84 2 6.61035 5.61735 11.7455 -0.00275931 -0.00393024 -0.00284264
85 1 9.80672 4.11012 11.3256 0.00211125 0.00174692 -0.00173441
86 2 9.28508 4.83761 10.9837 0.0205057 -0.0271305 0.00833907
87 2 11.4491 4.49221 10.4578 0.0223442 0.00817669 -0.0178327
88 1 7.63607 12.5203 6.12373 -0.00801584 0.00277948 0.00801079
89 2 6.41505 12.5589 6.93606 -0.0273599 -0.00080757 0.032648
90 2 7.79704 13.5289 6.03036 -0.0273202 -0.00869525 -0.00361103
91 1 5.97485 6.46336 6.33998 0.00509169 -0.0017689 -0.00259301
92 2 4.0951 7.73713 6.34312 -0.00875253 0.00476635 0.0167057
93 2 5.47234 5.89793 6.97624 -0.00706803 -0.00531473 0.0173191
94 1 4.10326 4.68679 7.71334 -0.00450037 -0.000817837 -0.0038749
95 2 3.54603 4.70086 8.4916 0.0214877 -0.00959764 0.0127422
96 2 5.68225 6.15522 5.4112 0.00945903 -0.00136717 -0.00468445
ITEM: TIMESTEP
3
ITEM: NUMBER OF ATOMS
96
ITEM: BOX BOUNDS pp pp pp
2.9236100000000000e+00 1.2773600000000000e+01
4.0306300000000004e+00 1.3880599999999999e+01
2.1372399999999998e+00 1.1987200000000000e+01
ITEM: ATOMS id type x y z vx vy vz
1 1 7.29713 12.6634 3.22334 0.00140698 0.00285076 0.00268428
2 2 6.576 12.1108 2.88887 -0.00510968 -0.0112112 0.0272673
3 2 9.19319 13.2481 11.2125 -0.00905164 0.0158382 0.00617511
4 1 12.4144 10.0984 2.28664 -0.00118807 -0.00199874 -0.00534336
5 2 11.5923 10.6407 11.856 0.00988321 -0.00388779 0.01573
6 2 12.1213 9.31837 2.84365 0.0152759 -0.0142438 0.0111123
7 1 12.1909 7.7352 3.98923 0.00111954 0.00287974 0.00437422
8 2 11.3893 7.19797 4.05531 0.00328001 -0.00992548 -0.00567252
9 2 8.01921 8.44378 8.22025 0.0065936 0.0115153 0.0145405
10 1 7.42435 7.87857 8.74882 0.00699278 0.012015 0.000836474
11 2 6.94959 7.44699 8.05573 0.00432336 -0.0396639 0.00678383
12 2 6.66811 9.27697 9.25997 -0.00390351 0.00196354 -0.00573849
13 1 5.76059 8.66596 2.27103 0.00557315 0.00326446 0.00104435
14 2 6.07916 8.89252 11.2137 -0.00477602 0.00951231 -0.0284808
15 2 5.46253 7.66585 2.16843 -0.00732243 -0.0346614 -0.0196241
16 1 9.72207 8.01165 10.9798 -0.0023086 -0.0023739 -0.00135584
17 2 9.65782 7.58828 11.8608 -0.00328138 0.0177088 -0.024916
18 2 8.81531 7.88748 10.7381 2.76703e-06 0.024016 0.0125786
19 1 4.77071 5.73281 11.4803 0.00277119 0.00391407 0.00149973
20 2 4.53798 5.53767 2.6176 -0.00265776 0.000676901 0.00636693
21 2 11.3174 8.85923 10.2347 0.00901758 -0.0152173 0.0142614
22 1 9.97046 10.8158 11.6167 0.00132272 0.00145491 0.00108667
23 2 9.65597 10.7505 2.74123 -0.0104831 -0.000629413 -0.000703378
24 2 9.853 9.8355 11.3547 0.00663517 -0.0290001 -0.0119828
25 1 3.41418 8.35566 6.34887 0.0020056 -0.000563529 -0.00297272
26 2 3.79888 9.19037 6.46165 0.0151031 -0.00538574 0.0199541
27 2 3.48317 6.49008 3.99513 -0.0127713 -0.00161343 -0.00478345
28 1 9.50956 7.09569 4.24585 -0.00271429 -0.00789429 0.00543943
29 2 9.14001 6.83415 5.0771 -0.00908389 -0.00664922 0.0129969
30 2 9.20163 8.00137 4.12698 -0.0042541 -0.0158899 0.0174615
31 1 3.78401 11.2689 5.76558 0.00269591 0.000657186 -0.00235183
32 2 3.38119 12.6663 5.3142 0.00839679 0.00230029 0.0372587
33 2 4.34095 11.0802 4.9685 -0.00644541 -0.0121014 -0.000614751
34 1 7.76861 5.03104 9.04723 0.000938137 0.000621892 -0.00820136
35 2 7.96653 4.13835 9.21867 -0.00798546 0.0202138 0.0086099
36 2 7.65641 5.46493 9.94208 0.0268358 -0.00908877 0.0140838
37 1 8.02117 12.0196 10.1446 -0.00263473 -0.00773034 0.00020213
38 2 9.13655 12.0637 8.93995 -0.0294467 -0.00588512 -0.0155872
39 2 8.6021 11.6576 10.8379 0.00108329 -0.00664332 0.00951612
40 1 12.6434 13.5959 5.2746 -0.00335845 -0.00278599 -0.00133165
41 2 3.64162 4.99556 4.4232 0.0116113 -0.0178419 0.0239605
42 2 11.7364 13.3311 5.00546 -0.0102149 0.0155822 -0.0139175
43 1 4.18906 5.79314 4.21748 -0.00151326 -0.00596721 0.000273187
44 2 12.3585 8.26832 4.83349 -0.000501775 0.0247425 0.0148817
45 2 7.37399 12.5347 4.16651 -0.00083708 0.0388938 0.00431223
46 1 9.49115 12.3613 8.03374 0.00676625 0.00153423 -0.00254191
47 2 8.3226 12.2893 6.8096 0.0245346 0.0166526 0.00510373
48 2 10.2364 11.7921 7.78269 -0.015966 0.00381561 0.0135484
49 1 10.4452 6.70585 8.52468 -0.00255247 0.000623014 -0.00091897
50 2 9.48045 6.46225 8.56157 0.0224822 -0.0100997 0.0101957
51 2 10.4364 7.33149 9.27434 0.0156363 0.00293981 -0.0241935
52 1 9.19601 10.3508 4.4117 -0.0027865 0.00230035 5.11557e-05
53 2 8.99657 10.0477 5.30435 0.0208181 -0.00462559 0.01352
54 2 8.96202 11.2596 4.38395 0.00682925 0.0182468 0.0241226
55 1 4.8411 11.0285 3.28447 -0.00662458 -0.000196974 -0.000761873
56 2 5.24689 10.1692 2.97957 0.0162483 -0.00977496 -0.00164877
57 2 3.91134 10.9333 3.01958 -0.0243223 -0.0171639 0.0106374
58 1 6.23185 10.1234 9.46424 2.85548e-05 -0.00235119 0.000922252
59 2 5.02435 13.1245 7.82791 -0.000706136 0.000174651 -0.00277742
60 2 7.30439 11.3254 9.81109 -0.00677407 0.00849395 -0.00689567
61 1 8.29713 5.29179 6.40491 0.00361331 6.48581e-05 -0.00326943
62 2 8.60194 5.40489 7.36528 -0.00279991 -0.02801 -0.0114228
63 2 7.45768 5.83361 6.23789 -0.0231347 0.0206745 0.0222063
64 1 5.46893 12.2292 7.57572 4.79732e-05 0.00033969 0.00547819
65 2 4.56572 11.6445 6.63658 -0.035469 -0.0126642 -0.0050803
66 2 3.4479 4.54415 6.908 0.00284887 0.00698432 0.00286992
67 1 11.6258 10.6099 7.45649 -0.000902867 0.00395346 -0.000852115
68 2 12.3121 10.493 6.72778 -0.0121737 0.018488 -0.0097645
69 2 11.8152 9.90614 8.17254 -0.0227947 -0.0307165 -0.00862477
70 1 9.99678 13.3121 4.21357 -0.00309825 -0.00144327 -0.00639082
71 2 9.83154 13.6494 3.3054 0.00416667 -0.0047206 -0.00202126
72 2 9.20345 13.4772 4.65214 -0.000238013 0.0158177 0.024947
73 1 9.31406 9.31728 7.04576 -0.00263383 0.00435778 0.00236939
74 2 9.75285 8.48597 6.83651 0.000193104 0.00174748 -0.0109852
75 2 10.0528 10.0005 7.19154 -0.00408748 -0.00512798 -0.0168548
76 1 12.1953 4.91389 9.90605 -0.00219847 -0.00377445 0.00118213
77 2 11.6896 5.38893 9.24169 -0.0161406 0.00069191 -0.00154072
78 2 4.01978 5.61789 10.9457 -0.00227569 0.0017526 0.0097313
79 1 12.1866 8.89776 9.67639 0.00593903 0.00701875 -0.00299167
80 2 3.05699 9.14696 10.2665 0.00724801 -0.0156127 -0.0187562
81 2 6.07372 10.4886 8.56569 0.00315031 -0.00289841 -0.0238064
82 1 7.59804 5.47966 11.6756 0.00121573 -0.00580093 0.00132279
83 2 7.68562 4.63384 2.29647 0.0108187 0.00743832 -0.0142067
84 2 6.60959 5.61572 11.7437 -0.000213584 -0.00268289 -0.00465128
85 1 9.80784 4.11101 11.3247 0.00239881 0.00174887 -0.00171297
86 2 9.29523 4.82499 10.9878 0.0195042 -0.0218703 0.00734545
87 2 11.4618 4.49684 10.4482 0.02734 0.00973509 -0.0198779
88 1 7.63206 12.5218 6.12763 -0.00797839 0.00298702 0.00760764
89 2 6.39903 12.5577 6.95379 -0.0363067 -0.00413594 0.0379292
90 2 7.78325 13.5253 6.02873 -0.0278081 -0.00554072 -0.00299687
91 1 5.97732 6.46248 6.33861 0.00475926 -0.0017457 -0.00284684
92 2 4.09242 7.73858 6.35143 -0.00172141 0.000659672 0.0165387
93 2 5.469 5.89536 6.98414 -0.00599586 -0.00470106 0.0137501
94 1 4.10097 4.68636 7.71125 -0.00463547 -0.000896843 -0.00449878
95 2 3.55631 4.69601 8.49861 0.0194393 -0.00979626 0.015095
96 2 5.6868 6.15498 5.41072 0.00860224 0.00030266 0.00269665
ITEM: TIMESTEP
4
ITEM: NUMBER OF ATOMS
96
ITEM: BOX BOUNDS pp pp pp
2.9236100000000000e+00 1.2773600000000000e+01
4.0306300000000004e+00 1.3880599999999999e+01
2.1372399999999998e+00 1.1987200000000000e+01
ITEM: ATOMS id type x y z vx vy vz
1 1 7.29785 12.6649 3.22463 0.00146687 0.00298008 0.00246727
2 2 6.57353 12.1053 2.90343 -0.00468811 -0.0107027 0.0309163
3 2 9.18858 13.2549 11.2157 -0.00950381 0.0107154 0.00677601
4 1 12.4138 10.0974 2.28399 -0.00119345 -0.00220889 -0.00523218
5 2 11.5978 10.6381 11.8644 0.0113238 -0.00607668 0.0176913
6 2 12.1291 9.31234 2.84848 0.0160931 -0.00965075 0.00803357
7 1 12.1915 7.73669 3.99137 0.00133847 0.00308255 0.00421539
8 2 11.3901 7.19334 4.05325 1.94401e-05 -0.00832941 -0.00248847
9 2 8.02295 8.44955 8.2277 0.00835851 0.0115418 0.0148569
10 1 7.4279 7.88459 8.74924 0.00720297 0.0120322 0.000835663
11 2 6.95091 7.42636 8.0587 0.0017333 -0.0421452 0.0056207
12 2 6.66683 9.27654 9.2574 -0.00124914 -0.00368872 -0.0044655
13 1 5.76338 8.6674 2.27146 0.0055583 0.00245528 0.000619354
14 2 6.07611 8.89706 11.2006 -0.00762573 0.00850695 -0.0230253
15 2 5.45964 7.65148 2.15873 -0.00397039 -0.0218609 -0.0189178
16 1 9.72091 8.01047 10.9793 -0.00231131 -0.00232205 -0.00105021
17 2 9.65669 7.59738 11.8479 -0.00118182 0.0180277 -0.0251883
18 2 8.81473 7.89953 10.7436 -0.00292129 0.0241325 0.00918227
19 1 4.77221 5.7348 11.4811 0.00318607 0.0040461 0.00183994
20 2 4.53643 5.5382 2.61995 -0.0034501 0.00143344 0.00299077
21 2 11.3247 8.8518 10.2409 0.0202807 -0.0144152 0.010313
22 1 9.97104 10.8164 11.6173 0.000979677 0.000853916 0.00134346
23 2 9.65132 10.7509 2.73978 -0.00808325 0.00213797 -0.00514716
24 2 9.85654 9.82204 11.3483 0.00761161 -0.0238487 -0.0132385
25 1 3.41501 8.35537 6.34738 0.00133014 -0.000581201 -0.00302127
26 2 3.8074 9.18902 6.47163 0.0187271 -0.000323847 0.0199718
27 2 3.4771 6.49007 3.993 -0.0113276 0.0010866 -0.00352593
28 1 9.50823 7.09177 4.24852 -0.00261069 -0.00778206 0.00527933
29 2 9.13524 6.83053 5.08391 -0.00982383 -0.0078437 0.0139053
30 2 9.19959 7.99328 4.13607 -0.00400469 -0.0161351 0.0187678
31 1 3.78548 11.2692 5.7645 0.00316651 0.000588154 -0.00196247
32 2 3.38418 12.6687 5.33286 0.00323575 0.00716114 0.0370718
33 2 4.33786 11.0743 4.96849 -0.00557364 -0.0117479 0.000268057
34 1 7.76909 5.03145 9.04311 0.000982073 0.00105047 -0.00823713
35 2 7.96283 4.14684 9.22322 -0.00669291 0.0130203 0.00938336
36 2 7.66972 5.46019 9.94883 0.0263494 -0.00967002 0.0124778
37 1 8.01977 12.0157 10.1446 -0.00293517 -0.00764365 -2.50411e-05
38 2 9.12189 12.0607 8.93195 -0.0292386 -0.00635806 -0.0162662
39 2 8.60232 11.6531 10.8428 -0.000293475 -0.0112372 0.00969787
40 1 12.6417 13.5945 5.27394 -0.00333617 -0.00289092 -0.00131436
41 2 3.64741 4.98561 4.43573 0.0115744 -0.021481 0.0260072
42 2 11.7317 13.3392 4.99849 -0.00820061 0.0163297 -0.0138866
43 1 4.1883 5.79017 4.21758 -0.00155804 -0.0058955 0.000114349
44 2 12.358 8.27958 4.84079 -0.0017226 0.0198352 0.0138124
45 2 7.37297 12.5537 4.16847 -0.00315748 0.0370977 0.00376897
46 1 9.49454 12.3621 8.03245 0.00676776 0.0016802 -0.00263561
47 2 8.33568 12.2968 6.81336 0.0272139 0.013652 0.00935535
48 2 10.2285 11.7939 7.78976 -0.0148987 0.00286061 0.0144204
49 1 10.4438 6.70615 8.52427 -0.00307611 0.000560033 -0.000769579
50 2 9.49302 6.45709 8.56622 0.0268599 -0.0106409 0.00853495
51 2 10.4452 7.33276 9.26167 0.0192376 0.00256492 -0.025944
52 1 9.19463 10.3519 4.41168 -0.00274939 0.00198396 -0.000137447
53 2 9.00698 10.0455 5.3118 0.0209119 -0.00426427 0.0157898
54 2 8.96512 11.2698 4.3965 0.00574433 0.0222227 0.0260197
55 1 4.83785 11.0284 3.28413 -0.00638167 -0.000193849 -0.000637775
56 2 5.2554 10.1641 2.97882 0.0173186 -0.00990332 -0.00122939
57 2 3.89785 10.9249 3.02445 -0.0288124 -0.0165004 0.0089344
58 1 6.23182 10.1223 9.46468 -0.000159571 -0.00194886 0.000766873
59 2 5.02401 13.124 7.82591 -0.000841963 -0.00211142 -0.00499079
60 2 7.3021 11.3298 9.80867 -0.00249815 0.00910208 -0.00275398
61 1 8.29905 5.29178 6.4033 0.00400029 -6.92281e-05 -0.00322309
62 2 8.59906 5.3906 7.3582 -0.00846183 -0.0290833 -0.0164384
63 2 7.44633 5.84389 6.24982 -0.0215365 0.019939 0.025534
64 1 5.46902 12.2294 7.57844 0.00026851 0.000550791 0.00544604
65 2 4.5468 11.6379 6.63208 -0.0399516 -0.0140352 -0.0130099
66 2 3.45064 4.54764 6.91111 0.0077011 0.00691392 0.00940012
67 1 11.6253 10.6119 7.45611 -0.00078446 0.0037085 -0.00066043
68 2 12.3054 10.5023 6.72384 -0.0148173 0.0186062 -0.00584474
69 2 11.8042 9.89158 8.16736 -0.0213811 -0.0271239 -0.0124685
70 1 9.99533 13.3114 4.21033 -0.00275509 -0.00151085 -0.00654162
71 2 9.83393 13.6469 3.30449 0.00512418 -0.00507422 -0.00169538
72 2 9.202 13.4854 4.66571 -0.0048311 0.0169871 0.0287015
73 1 9.31274 9.31949 7.04693 -0.00265333 0.00443804 0.00229675
74 2 9.75321 8.48705 6.83126 0.00107179 0.00263626 -0.0100073
75 2 10.0502 9.99706 7.18287 -0.00572613 -0.00834043 -0.0176878
76 1 12.1941 4.91196 9.9067 -0.00236511 -0.00390761 0.00133913
77 2 11.6813 5.39006 9.24045 -0.016576 0.00361156 -0.0031847
78 2 4.01716 5.61824 10.95 -0.00807898 -0.000291314 0.0075516
79 1 12.1894 8.90128 9.67491 0.00544185 0.0070175 -0.00294102
80 2 3.05953 9.13928 10.2576 0.00340619 -0.01492 -0.0166279