ITEM: TIMESTEP
0
ITEM: NUMBER OF ATOMS
1151
ITEM: BOX BOUNDS pp pp pp
1.6762900000000000e-01 2.2849499999999999e+01
-2.0329000000000000e-01 2.2478600000000000e+01
8.2643499999999995e-02 2.2764500000000002e+01
ITEM: ATOMS id type x y z vx vy vz 
55 4 0.183249 5.06778 1.973 0.0296423 -0.0160453 1.09957e-05 
168 3 3.53822 0.884123 2.57158 0.000691822 -0.00815607 -0.000982383 
169 4 3.01592 0.0823775 2.59681 0.000666529 0.0223776 0.000118506 
170 4 3.41494 1.22306 1.68492 0.0042987 -0.00973131 0.0313983 
210 3 3.85372 5.28074 2.18267 -0.00414396 0.000755529 0.00255849 
211 4 4.64087 4.73703 2.15114 0.0119096 0.0142036 0.0256496 
212 4 3.12945 4.65864 2.11446 0.00728616 0.0110019 0.00504539 
628 4 1.18522 4.71895 5.69623 -0.0161712 0.0243813 0.00883074 
716 4 5.33073 1.15048 3.03036 -0.0321343 0.0049275 -0.00331528 
864 3 5.21516 4.48649 5.65901 0.00471526 -0.00514019 -0.00517847 
865 4 5.17582 4.50536 4.7028 0.0226932 7.32284e-05 -0.00975387 
870 3 3.71409 1.77217 5.37865 0.000593075 0.00413929 0.0015027 
872 4 3.81562 1.0979 4.70689 0.00110564 -0.0177139 -0.0506745 
879 3 2.28317 3.23841 2.91259 -0.00728303 -0.00157902 -0.00189324 
880 4 1.55102 2.67462 3.16223 0.00356088 -0.00558882 -0.00860886 
881 4 3.05301 2.67277 2.97277 -0.0255365 0.00392378 0.0146182 
1142 4 0.884593 2.16082 5.61846 -0.0174588 -0.0116992 -0.00289737 
98 4 7.19986 -0.191822 0.747181 -0.00684835 -0.0131334 2.32277e-05 
357 3 6.3047 4.23968 3.05272 0.00193208 0.000423114 0.00533638 
358 4 7.24855 4.36216 3.15462 -0.000919324 -0.0202204 -0.00994669 
359 4 6.18831 3.29023 3.01763 -0.00736719 -0.0118656 0.00133475 
400 4 9.11018 0.110202 2.49886 0.00593615 -0.00293329 -0.00371869 
594 3 9.03117 4.26144 3.23713 -0.000785148 0.00507488 0.000651692 
595 4 9.11488 4.25502 2.28362 0.00320894 -0.0160277 -0.00151735 
596 4 9.93321 4.27273 3.55717 -0.0143422 -0.00410136 0.00678334 
645 3 8.78213 1.86809 4.39595 -0.00198856 -0.00138341 0.00842467 
646 4 8.72513 2.681 3.89378 -0.00367249 -0.00136873 0.00276953 
647 4 9.65996 1.53358 4.21224 -0.00954075 0.00128735 0.0186761 
714 3 6.14945 1.64625 3.04253 -0.00101911 0.00699852 0.00417176 
715 4 6.68521 1.2086 3.70409 -0.00795718 -0.0300022 -0.0140348 
773 4 7.78778 1.63004 0.156486 0.0212479 -0.00670196 0.0167194 
852 3 9.94472 4.44218 0.651611 0.00146329 0.000272612 0.00195637 
853 4 9.15362 4.09908 0.236062 -0.0183965 -0.00160856 0.0210783 
854 4 9.89886 5.38787 0.510909 -0.00830688 -0.0234091 -0.0115809 
933 3 10.1349 1.65284 1.88041 -0.00177396 0.00151695 0.000519085 
934 4 10.8799 1.11075 1.62114 0.00539622 -0.0030841 -0.00535054 
935 4 10.0954 2.34039 1.21561 0.0298912 0.00496298 -0.00185948 
1005 3 11.43 3.49932 4.71312 -0.00449723 -0.00197677 -0.00773113 
1007 4 11.3133 4.437 4.86599 0.00840573 0.0020262 0.0196719 
99 3 13.5005 3.28292 2.84077 -0.00285839 -0.00110714 -0.0023466 
100 4 12.6825 3.11252 3.30765 0.0264307 0.0107273 -0.013876 
101 4 13.8624 4.06012 3.26649 -0.0121539 -0.0215279 0.00973717 
135 3 12.4511 2.79032 0.261082 -0.00118285 0.00478512 0.00792732 
136 4 11.7132 3.34271 0.519143 -0.0241051 0.00865773 -0.00221979 
137 4 13.1383 2.99624 0.894892 0.0133153 -0.00854173 -0.0225483 
240 3 14.4916 5.21831 4.48355 -0.00284237 -0.000896567 0.00296542 
241 4 14.4893 4.7618 5.32488 -0.00524943 0.00273131 0.0259809 
242 4 15.4187 5.33752 4.27764 -0.0173277 0.00573656 0.00130844 
300 3 16.1099 0.209627 4.63444 -0.000875572 -0.00052738 0.00134234 
301 4 15.7196 0.569076 5.43113 -0.00347109 0.0210355 -0.0132621 
820 4 14.9653 1.00301 0.733908 -0.0104003 -0.0276722 -0.0057292 
915 3 14.4907 0.650756 2.43165 -0.0044983 -0.00190999 -0.00155536 
916 4 14.2192 1.48205 2.82087 0.0134251 0.010808 -0.0126685 
917 4 15.1692 0.320311 3.02046 -0.0160351 0.0100818 0.00406714 
1006 4 11.923 3.1917 5.47373 -0.0220637 0.0099013 -0.0024141 
117 3 18.3805 1.52699 2.98865 -0.00527943 0.00881976 0.00237719 
118 4 18.5518 0.636727 2.68153 0.000835718 -0.0143595 0.0075907 
119 4 17.8257 1.91225 2.31043 0.0261146 -0.00790892 0.0231238 
480 3 21.5895 0.840251 1.76714 -0.000340666 -0.000171859 -0.00061717 
481 4 20.8109 0.725177 1.22242 0.000448512 0.0251186 0.00330824 
482 4 22.1201 0.0624342 1.59474 -0.0166527 0.00937039 -0.00897359 
519 3 19.4674 3.83451 3.78941 -0.00402579 0.00343996 0.000599224 
520 4 18.7328 4.39847 4.03135 -0.00102239 0.00608887 -0.00107148 
521 4 19.061 3.00402 3.54176 0.0146603 0.00614252 0.0214276 
618 3 19.8347 4.26709 0.313934 -0.000506474 -0.00109019 -0.00197313 
619 4 18.9015 4.10145 0.179961 0.0253656 -0.0204018 -0.00309705 
620 4 19.9455 4.26108 1.26469 0.00383487 -0.00486573 0.00505396 
769 4 21.3019 0.0860114 3.15666 0.0318081 0.0197468 0.00519909 
770 4 21.8643 0.0100427 4.56015 0.0300453 0.0101664 -0.02011 
937 4 20.7337 4.74995 5.38497 0.0219106 -0.000759763 0.016653 
987 3 22.0718 2.80856 4.14827 0.000280251 -0.00373172 -0.00510533 
988 4 21.788 3.6932 3.91787 0.00120043 0.00126791 -0.00473418 
989 4 21.7617 2.26145 3.42665 0.00446853 -0.0322333 0.00376315 
1056 3 18.8527 1.28516 5.66085 -0.00194809 -0.00260736 0.00283039 
1057 4 19.616 1.52063 5.13337 -0.00689537 -0.0350337 0.0117117 
1058 4 18.1051 1.43853 5.08307 0.00928106 0.011737 -0.0214424 
28 4 4.18504 6.21857 0.263122 -0.00223128 0.0513597 -0.0193828 
56 4 0.576454 6.21524 2.87888 -0.0188553 0.0164951 -0.00395484 
315 3 2.25029 9.76905 4.90496 0.00152936 0.00495171 0.0029161 
316 4 2.52726 10.1355 4.06516 0.00179998 -0.00468718 0.00843417 
317 4 1.32371 9.56231 4.78271 0.0211885 -0.00622169 -0.031565 
414 3 2.05005 6.83378 3.70067 0.000705515 0.00373572 0.00186945 
415 4 2.42502 6.85279 4.58116 0.0101936 0.000677924 0.0120441 
416 4 2.76313 6.52307 3.14281 -0.0160204 -0.007705 0.0457945 
552 3 5.1805 8.24616 2.28888 -0.00499433 0.00392831 -0.00282766 
553 4 4.40239 8.78956 2.16437 -0.00170751 -0.00580119 -0.00574845 
554 4 5.6476 8.30126 1.45521 -0.00164043 -0.0138403 0.024725 
623 4 0.383993 8.27137 1.41222 -0.000748183 -0.0103364 -0.00617709 
717 3 0.734065 11.0217 2.84121 0.00336477 0.00026221 -0.000958395 
719 4 0.265459 10.2026 2.68117 -0.002357 -0.0242175 -0.00448603 
765 3 3.40987 10.3849 2.12371 0.000258565 -0.00142044 -0.00485441 
766 4 3.25278 9.9376 1.29215 0.0145917 0.0134682 -0.0250041 
767 4 2.62508 10.9149 2.26314 0.00553265 0.0119053 -0.0288581 
420 3 6.85147 10.0213 4.0562 -0.00140623 -0.000448907 -0.00325759 
421 4 6.43695 9.89918 4.9103 -0.0168122 -0.0303137 0.0163974 
422 4 6.35157 9.45929 3.46424 0.00908657 0.0101433 0.0165548 
689 4 7.34534 7.64687 0.150084 0.0130959 -0.00732987 0.0182982 
774 3 10.7456 6.2389 5.71764 -0.00365906 0.00119786 0.000363383 
775 4 11.3074 6.98732 5.51645 0.012 -0.00854688 0.0146601 
776 4 10.0181 6.31205 5.09993 -0.0365799 0.016706 -0.02096 
783 3 9.59841 10.8335 3.92026 0.00112463 -0.00370924 0.000201604 
785 4 8.67362 10.6021 4.00662 0.0177141 0.0188769 0.0124742 
822 3 11.0648 8.49519 3.02107 0.000444597 0.00613418 -0.00199427 
824 4 10.4965 9.18413 3.36547 -0.0171087 -0.0121551 -0.0244146 
849 3 6.3717 6.83005 4.46605 0.00066807 0.000225579 -0.00217952 
850 4 6.40778 5.93903 4.1182 0.00915776 0.000619615 0.0259884 
851 4 6.05484 7.36045 3.73495 -0.00720051 6.1228e-06 0.00792673 
955 4 10.3535 11.1057 2.28562 0.00162751 -0.0216383 -0.00709426 
21 3 14.3744 9.34139 2.21332 0.00264239 0.00511798 0.000168077 
22 4 14.7742 9.19795 3.07112 0.00305072 0.00769939 -0.0133827 
23 4 14.9912 8.95275 1.59306 0.0132258 -0.00674353 0.0288293 
339 3 12.1472 7.93785 0.647767 -0.00090026 0.00391559 -0.00164688 
340 4 12.902 8.48969 0.852707 -0.00761533 0.0024952 0.00582996 
341 4 11.6295 7.93067 1.45286 -0.0352579 0.020684 0.00454364 
342 3 13.1445 7.66846 5.05557 -0.000593457 -0.00199707 0.00302196 
343 4 13.9064 7.81295 5.61676 -0.0190583 0.0185216 -0.00869067 
344 4 13.4277 6.99716 4.43473 0.0034715 0.0225306 -0.0207708 
502 4 14.4159 10.9625 5.62824 -0.00441514 0.00625279 0.01353 
823 4 11.8208 8.4919 3.60817 -0.00499329 -0.0081411 -0.0157269 
1088 4 17.035 7.0236 0.632166 -0.0216435 -0.003209 -0.0251816 
1095 3 15.9805 9.26224 4.88029 -0.00811687 0.00470434 -0.002441 
1096 4 16.7366 9.76562 5.18237 -0.0116378 -0.00343799 0.0363709 
1097 4 15.9493 8.50325 5.4627 0.00190119 -0.00751936 -0.00230394 
54 3 22.5479 5.90196 2.31906 0.00562704 0.00368231 -0.0022945 
103 4 20.0776 10.762 3.97072 0.0032554 0.014198 0.012269 
104 4 20.6246 10.8409 2.5613 0.0114961 0.00482628 -0.0148269 
129 3 20.2688 7.05806 2.9756 0.00131377 -0.0063901 -0.00145473 
130 4 21.0713 6.65704 2.64183 -0.00990287 0.0162376 0.0170864 
131 4 19.8027 7.35024 2.19224 -0.0192105 -0.02457 0.00996383 
378 3 17.5756 5.58647 3.85294 0.00158479 -0.00623278 0.00119557 
379 4 17.7377 5.62578 2.91039 -0.00432964 -0.00837518 -0.00250235 
380 4 18.2112 6.19403 4.2313 -0.0120361 0.0206695 0.0109825 
600 3 20.8562 10.6696 5.73092 0.00492767 -0.0019297 0.00173827 
621 3 22.5055 8.78271 1.99599 0.0019295 -0.0050407 -0.00462584 
622 4 21.6678 8.83877 1.53628 0.00687661 0.0290383 0.000397174 
810 3 19.9536 8.06161 0.508058 0.00550228 0.000391815 -0.00579623 
811 4 19.4855 8.89646 0.521856 -0.00464021 0.0290586 0.0285821 
969 3 18.883 7.25146 5.64246 0.000207752 0.0035335 -0.00329426 
970 4 19.617 7.45883 5.06414 0.00643709 0.00681552 0.00811053 
971 4 18.3747 8.06142 5.68495 -0.0131866 -0.0114574 0.00802553 
1086 3 17.4601 6.19815 0.864835 -0.0007926 -0.00544481 0.000798513 
68 4 4.58586 16.5041 4.41612 0.0203267 -0.0129107 -0.00990368 
167 4 0.912168 13.4576 0.251256 -0.0220096 0.0112263 0.012757 
220 4 0.660485 15.1301 3.3895 -0.000429589 0.0308605 0.0134329 
270 3 1.46759 16.7696 3.48012 -0.000445665 0.00473069 0.00527665 
272 4 2.23343 16.7735 4.05431 0.0123197 -0.015009 0.0154406 
541 4 1.00706 13.987 5.48561 0.000716719 -0.00323246 -0.0087567 
732 3 5.63022 12.3473 5.44753 -0.00329739 0.00658 0.00175763 
734 4 5.41905 11.4241 5.3085 -0.0103835 -0.0148223 -0.0240589 
759 3 2.97188 16.6685 1.11119 0.00680852 -0.00700741 0.00183261 
760 4 3.59717 15.9451 1.15597 0.00166923 -0.0456208 -0.0079568 
761 4 2.39801 16.5367 1.86587 0.0143405 0.00816291 -0.0213952 
807 3 4.14274 14.8249 5.40876 0.000818723 -0.00574715 -0.0114225 
808 4 4.32209 14.0514 4.87428 0.018159 -0.00302869 0.00643314 
816 3 5.02039 14.7809 1.12563 -0.00333628 -0.00532147 -0.000616812 
817 4 5.64674 15.167 0.513425 -0.0027052 0.0134268 0.0111539 
818 4 5.50197 14.0667 1.5431 0.00935772 -0.00986201 -0.00235106 
153 3 6.06662 12.9364 2.91587 -0.00305787 2.47795e-05 0.0041909 
154 4 6.60415 12.1884 2.6554 -0.0084399 0.00332767 -0.0189617 
155 4 6.07822 12.9186 3.87283 -0.0218476 0.00625215 0.0115699 
303 3 10.3006 12.7751 5.48708 0.00662876 0.000908958 -0.0085852 
304 4 10.9489 13.4274 5.22172 0.00868804 0.0223482 -0.00254225 
465 3 10.0566 16.4748 2.92006 8.53343e-05 -0.00177574 0.00496076 
466 4 10.4556 15.7454 3.39439 0.0143414 -0.0205298 -0.013746 
467 4 9.12742 16.2501 2.87182 0.00767039 -0.00458773 0.00870007 
784 4 9.67042 11.6932 4.33482 0.0146018 0.00395437 0.00657701 
831 3 7.18535 15.9557 2.56992 -0.000375403 -0.00323324 -0.00575693 
832 4 6.82249 15.0701 2.58736 -0.0016442 0.00412159 -0.0130496 
833 4 6.47123 16.5137 2.87788 0.00945726 -0.00850088 -0.0225583 
954 3 10.5486 11.171 1.35078 0.00104761 -0.00561594 -0.000245294 
956 4 9.69216 11.1414 0.924301 0.0255326 0.00653589 -0.00525319 
171 3 14.4215 14.555 4.4618 0.00454211 -0.00190562 0.000871283 
172 4 14.5877 13.8809 3.80281 -0.00460074 3.90423e-05 0.0112349 
173 4 14.9198 14.2698 5.22771 -0.0135853 0.0059131 0.0174352 
194 4 12.5901 14.7146 0.423472 -0.0208804 -0.0178535 0.0156577 
282 3 15.1662 12.6581 2.5315 -0.00491391 0.00419865 3.71301e-05 
283 4 15.143 11.7202 2.72097 0.0174559 -0.0245095 -0.0049968 
284 4 15.885 12.7592 1.90752 -0.00985851 -0.00741977 -0.0177628 
312 3 12.3974 13.1044 1.83747 -6.87476e-05 0.00430356 0.00081209 
313 4 11.8517 12.318 1.83034 -0.00609337 -0.0127701 0.00883546 
314 4 13.2955 12.7732 1.84207 -0.0182806 0.0106648 -0.0246114 
729 3 11.7176 14.5287 3.88824 -0.0011008 -0.00162724 0.0024011 
730 4 12.544 14.9675 4.08989 0.0139607 -0.00159395 0.00429872 
731 4 11.9096 13.9992 3.11427 0.00300815 0.00401625 -0.0285216 
102 3 20.0674 11.3074 3.18419 0.00494344 0.00420188 -0.00283065 
160 4 19.4905 16.6926 3.09148 0.01323 -0.0143714 0.00708058 
161 4 20.7917 15.9511 2.86989 0.00901166 -0.00123491 -0.00692843 
165 3 22.8174 13.7515 0.727378 0.00590577 -0.00186313 -0.00185273 
166 4 22.4248 14.4149 0.159911 -0.0233624 0.00739476 0.0197056 
219 3 22.7446 14.4011 3.55521 0.00601375 0.00384406 -0.00647889 
221 4 22.6342 13.9825 2.70152 -0.00109201 -0.00814494 -0.0280315 
348 3 19.6841 13.8565 4.03003 0.0015295 0.00403405 -0.00489656 
349 4 20.6058 14.1126 4.06418 0.013358 -0.0242801 0.00211017 
350 4 19.7013 12.9293 3.79293 -0.000325346 -0.0191733 -0.00942777 
423 3 18.3143 12.72 1.44287 0.0016509 -0.00275286 0.00369121 
424 4 18.613 12.1059 0.772177 -0.000921852 0.0249368 -0.0274211 
425 4 18.8016 12.4728 2.22878 -0.00984798 0.00670192 -0.00666093 
718 4 22.7535 11.7033 2.72749 0.0156134 -0.0124565 -0.00724735 
813 3 19.0883 15.1723 0.147887 -0.00159886 0.000117626 -0.00669467 
814 4 18.9419 14.3229 0.564326 0.00309553 0.00699255 0.00949718 
945 3 17.8111 15.6964 3.38643 0.00346868 0.00220951 0.000151254 
946 4 18.2921 14.8695 3.42281 0.00467982 -0.00844507 -0.00945872 
947 4 17.4947 15.7505 2.48467 -0.00125868 0.00893606 0.0104517 
66 3 5.06436 17.2781 4.11895 0.00241161 -0.000726463 0.0106097 
67 4 5.5538 17.5679 4.88882 0.0168127 0.0195696 0.00119537 
271 4 1.09718 17.6478 3.56821 0.0235814 -0.0137361 -0.00625258 
450 3 1.57415 21.5974 2.93241 -0.00108438 -0.00485384 -0.00142227 
451 4 1.79818 20.7827 3.38221 -0.00202492 0.00678621 -0.00999255 
452 4 1.06098 21.3194 2.17373 -0.020321 0.0332199 -0.00914628 
648 3 5.47336 19.4399 2.85068 -0.00381953 0.00776563 -0.00132509 
650 4 5.19485 18.6074 3.23217 -0.00749438 -0.0180906 0.00619953 
744 3 3.76624 19.3575 0.671478 0.00335463 0.00179354 0.00590992 
745 4 4.17669 19.761 1.43633 0.0120245 -0.0179106 0.0107995 
746 4 3.47933 18.4976 0.97871 -0.00393456 0.0193266 -0.0165044 
120 3 6.63211 21.6963 4.23426 -0.00114904 0.00449784 0.00210358 
121 4 5.96317 21.0854 3.925 -0.0135926 -0.0291724 -0.0159695 
122 4 7.37341 21.5591 3.64442 -0.0230912 0.0345482 0.00539967 
144 3 10.2787 20.9184 4.67758 -0.000298555 0.00369734 -0.00264018 
145 4 9.62912 21.6109 4.5561 0.0166502 -0.00683203 0.0033091 
146 4 9.77305 20.1064 4.643 0.00315304 -0.0111289 0.00366197 
204 3 8.70269 18.6367 4.71227 -0.00344779 0.000638412 -0.0114219 
205 4 9.20624 18.0007 5.22042 0.0151543 0.0173694 -0.00117479 
206 4 7.81098 18.5637 5.0525 -0.0200927 -0.00682623 0.0149264 
399 3 8.70408 21.9269 2.44615 -0.00258776 0.000425654 0.000335637 
401 4 9.3383 21.3928 1.96785 0.00232438 -0.00661916 0.0279906 
649 4 6.13952 19.1982 2.20725 0.00971716 0.0147151 -0.00307274 
861 3 11.0098 17.7187 0.720942 0.00354591 -0.00671204 -0.000372288 
862 4 11.2811 17.0286 0.115607 -0.00790397 0.011686 0.00932503 
863 4 10.6653 17.2495 1.48084 -0.00500714 0.0042876 -0.0123977 
972 3 7.86844 18.6031 1.38701 0.00170633 -0.000732171 0.00797474 
973 4 8.28148 19.0706 2.11301 0.000701191 0.0187449 -0.0181332 
974 4 8.13709 17.6919 1.50452 0.0191392 0.0041793 0.0176954 
990 3 10.6041 20.4804 0.129044 0.000435936 0.00497615 -0.00508799 
991 4 11.35 21.0294 0.37069 0.00662914 0.0103115 0.00277194 
1003 4 11.318 19.417 3.99374 0.00357131 -0.0194496 -0.00867764 
1004 4 11.3213 17.9563 3.59592 0.0143562 0.00303559 -0.0090491 
63 3 17.0317 20.5727 0.307112 0.000198474 0.00221031 -8.98911e-05 
65 4 16.3344 20.0536 0.707759 -0.00252432 -0.00347534 -0.0149074 
195 3 15.2821 20.0602 5.06195 -0.00237091 0.00164119 -0.000133684 
196 4 16.2369 20.0249 5.00434 -0.00841112 0.0204626 -0.00652085 
197 4 15.0076 19.1432 5.06126 -0.0181119 -0.0148108 0.0171078 
302 4 16.2642 21.969 4.83791 -0.00771714 0.0152079 0.0138669 
432 3 16.6434 17.5343 1.42497 -0.00446674 -0.000520943 0.000926581 
433 4 16.3026 18.1453 2.07827 0.0068957 0.0189831 -0.00814426 
434 4 15.9488 17.4721 0.769286 -0.0207178 -0.00484689 0.0178482 
477 3 15.2596 19.7199 2.02386 -0.00171946 0.00542713 -0.00291774 
478 4 14.3938 19.8481 2.41149 0.0314229 0.00355381 0.00679187 
479 4 15.8097 20.3832 2.44058 0.00336569 -0.0130689 -0.00383021 
664 4 13.5204 16.9621 0.224592 -0.00176066 -0.0288175 -0.022743 
710 4 13.7895 21.0252 0.354995 0.0331742 -0.0250552 -0.032322 
753 3 14.3253 17.5148 4.60861 -0.0027096 0.00258971 0.00159646 
754 4 14.8203 16.853 4.1257 0.00708114 -0.000716576 0.00786414 
755 4 13.639 17.7916 4.00151 4.72003e-05 -0.00793131 -0.0175879 
1002 3 11.8387 18.7592 3.53292 0.00128769 0.00018898 0.00858438 
159 3 20.4377 16.823 3.04522 -0.00189826 -0.00234002 -0.00538438 
186 3 22.8157 21.3318 0.721847 -6.65441e-05 0.000319279 0.00155628 
187 4 22.7783 20.379 0.63838 0.00623276 0.00324489 0.0092009 
213 3 19.0833 21.6945 1.41006 -0.00493352 -0.000854654 -1.6226e-05 
214 4 18.3557 21.236 0.989908 -0.00572101 -0.0230828 0.00027687 
215 4 19.3687 21.1038 2.10713 -0.0194552 0.0199968 -0.007313 
228 3 21.9684 18.3703 4.6341 0.00330026 -0.00313299 -0.00128544 
229 4 21.4771 18.5336 5.43918 -0.0130796 -0.00772506 -0.00223553 
230 4 21.5844 17.5696 4.27679 0.0156758 0.00953245 -0.0149846 
255 3 17.99 18.0297 4.66169 0.00302657 0.00464317 -0.00629436 
256 4 17.7229 17.2217 4.22354 -0.00966285 0.006939 -0.00969773 
257 4 17.7576 17.8928 5.58011 -0.0130925 0.0120043 0.0149721 
462 3 20.2134 19.6612 3.00438 0.00100785 -0.000990662 0.00529325 
463 4 20.9054 19.9536 3.59752 -0.00727373 -0.0173414 -0.0113944 
464 4 20.3153 18.7101 2.96711 0.0140252 -0.0137023 0.00601754 
483 3 17.7615 20.86 4.38672 0.000727235 -0.00418836 0.00537399 
484 4 18.5863 21.3342 4.49226 -0.00762874 -0.0114504 0.0166635 
485 4 18.025 19.9606 4.1924 -0.0058861 -0.00903664 -0.00607976 
654 3 22.4765 18.8215 1.21016 0.0055274 -0.0042488 0.000924072 
655 4 22.3675 18.1406 1.87408 0.0203752 0.0171159 -0.00575339 
656 4 21.6282 19.2639 1.17875 0.011251 0.0211879 -0.0313393 
768 3 21.105 22.4406 4.03435 -0.00353472 -0.00146959 0.00377738 
49 4 3.41952 0.179841 10.662 -0.0123747 0.0133622 0.0204298 
72 3 4.69438 0.0151921 8.44058 -0.00151637 -0.00256401 -0.00381623 
73 4 4.97959 0.466653 9.23498 0.00967256 0.0295962 0.0143146 
74 4 5.46905 0.0062039 7.8784 0.0266777 0.0254902 0.00624369 
111 3 2.37158 1.43964 9.02078 -0.00534039 -0.000958862 0.00135586 
112 4 2.95899 0.95799 8.43838 -0.0209712 0.00161577 0.0206609 
113 4 1.51423 1.03664 8.88378 -0.0436098 -0.00783956 0.0128031 
223 4 0.645875 2.93851 11.1822 -0.0159435 -0.000607126 -0.0128397 
525 3 1.92255 4.23449 10.7723 0.0032542 -0.0064556 0.00376771 
526 4 2.17461 4.96022 11.3433 0.00646144 0.0233079 -0.000490818 
527 4 2.26188 4.47779 9.91093 0.00519368 -0.00712639 -0.0104214 
556 4 0.221408 0.352132 10.9742 0.00621644 0.0026152 -0.0135935 
627 3 0.772605 5.01191 6.50873 -8.88309e-05 -0.00563584 0.00152111 
629 4 1.50484 5.19255 7.09817 -0.0103026 -0.00156217 -0.0129022 
680 4 0.271031 0.376788 7.4923 0.0148595 -0.00667963 0.00630046 
866 4 5.35798 3.56503 5.87518 0.00523993 0.0184789 -0.000646452 
871 4 4.40212 1.58133 6.01617 0.0143168 -0.0120838 -0.00355412 
888 3 5.40108 4.47567 9.56385 -0.000153505 -0.00719802 0.00332837 
889 4 5.45411 3.8997 10.3265 -0.00237703 -0.000550055 0.000238687 
980 4 3.5872 4.9934 8.83875 -0.00435232 -0.00486314 -0.0219273 
1140 3 1.09426 1.8602 6.50271 0.000810806 -0.000415372 -0.00484352 
1141 4 2.0408 1.98055 6.57898 -0.0345562 -0.0118717 -0.00551581 
61 4 11.1529 3.5639 9.84496 -0.00699873 0.0210648 0.0190971 
162 3 8.06217 2.85192 8.63825 0.00190693 -0.00551458 0.00722351 
163 4 8.06661 2.74831 9.58982 -0.0252904 0.00616914 0.0336133 
164 4 8.3848 3.74119 8.49216 0.0147703 -0.0109644 -0.000391265 
411 3 6.68805 1.81872 6.52711 0.00220001 0.0040121 0.00654875 
412 4 7.30678 1.90589 5.80198 -0.0206982 0.000833053 0.0189977 
413 4 7.19822 2.04099 7.30593 -0.0281616 -0.0231329 -0.0106457 
644 4 8.43538 0.533557 9.70427 -0.0344182 0.0125093 0.00255657 
855 3 9.4215 0.0718183 6.8876 0.00155859 -0.00644356 0.00120411 
857 4 9.69479 0.982898 6.99474 0.00608942 0.0125601 0.0267563 
890 4 6.065 4.13889 8.96217 -0.00148823 0.010427 0.0187423 
891 3 10.0524 4.68409 10.7673 -0.00339066 0.00541668 -0.000907845 
892 4 9.54301 4.91838 9.9915 -0.00350562 -0.0329885 -0.00769497 
893 4 9.40151 4.37486 11.3974 -0.0123542 0.0130592 0.00122006 
1062 3 8.18377 2.20793 11.224 -0.000196583 -0.00415152 0.00251589 
1119 3 9.35079 5.20458 8.08557 0.000352003 0.00180427 -0.000801134 
1120 4 10.1258 5.45954 7.58497 -0.00838519 -0.00177594 0.00627582 
15 3 15.5015 3.24995 7.45669 0.00671361 0.00162847 0.00608419 
16 4 15.6995 2.31407 7.42271 0.0107647 0.0193922 -0.0336179 
17 4 16.3197 3.67767 7.20419 -0.0107523 0.00125718 0.0248611 
60 3 11.9045 2.97115 9.84603 -0.00381958 -0.00247903 -0.00148733 
62 4 12.0217 2.73389 10.7659 -0.015771 0.0150946 0.00392857 
306 3 12.7521 3.58905 7.16799 0.00486407 -0.000562136 -0.00221549 
307 4 13.6873 3.42573 7.2905 -0.0034701 0.0158439 0.00363587 
308 4 12.3532 3.33584 8.00045 0.0268653 -0.0237682 -0.0262115 
671 4 14.7175 0.177713 7.95299 0.0249302 -0.00209584 -0.0201196 
777 3 15.2949 5.21689 9.79245 -0.000898399 0.00102261 -0.00426639 
778 4 15.5771 4.61773 9.10135 0.0260464 -0.00755363 -0.010782 
779 4 15.4025 4.71735 10.6018 0.016954 0.0174344 -0.0165332 
1143 3 14.0563 1.62213 9.4466 -0.00462625 -0.00705628 -0.00367917 
1144 4 13.3402 2.25163 9.36216 0.0328338 0.00490598 -0.0137343 
1145 4 14.1966 1.54341 10.3902 0.00332536 -0.0242631 -0.0156332 
222 3 22.5839 2.34134 11.2615 0.00138554 0.00233488 -0.00135808 
224 4 22.1414 2.39542 10.4144 -0.00254814 -0.00508503 -0.0298052 
225 3 21.6647 5.27897 9.19217 -0.000946333 -0.00505178 -0.00179378 
226 4 21.7687 4.52825 8.60749 -0.0270016 -0.0138571 0.0135179 
696 3 21.7117 2.57428 8.48469 -0.000361529 0.00265713 -0.00303688 
697 4 22.4794 2.38579 7.9449 -0.0132174 0.0166094 -0.0174981 
698 4 20.9837 2.16365 8.01825 -0.0030453 -0.0101699 -0.00152051 
739 4 18.3724 -0.0787401 7.22793 0.0394721 0.024324 -0.00528922 
876 3 18.6076 3.8127 6.87994 0.00221783 -0.0013472 0.000367305 
877 4 18.6378 3.14711 6.19269 -0.0109783 -0.0267935 -0.00148698 
878 4 19.441 4.27687 6.80136 -0.00515266 -0.0117142 0.0292551 
936 3 20.8812 4.86477 6.32374 0.000920044 -0.00777781 -0.000907677 
938 4 21.8303 4.79637 6.42768 -0.000650275 -0.00817543 -0.00984047 
1014 3 18.3468 2.62376 9.41434 0.00115564 0.00286526 0.00410795 
1015 4 18.1802 3.23218 10.1343 -0.0215332 -0.00413622 0.0270643 
1016 4 18.4756 3.18566 8.6502 -0.00816734 0.0102435 0.00459255 
1042 4 18.0845 2.01498 11.2806 0.00132067 -0.0086487 0.0119424 
1043 4 17.2246 0.772566 11.3746 0.000417715 -0.00721019 -0.0299823 
151 4 4.27394 6.7193 11.1221 0.026858 -0.0119504 0.00223018 
360 3 1.36494 10.2894 10.5702 -0.000564361 0.00132796 0.000131102 
361 4 1.02504 9.45288 10.8879 0.00388068 0.0202581 0.00725083 
362 4 0.99246 10.3823 9.69336 0.00653797 -0.0129206 0.011958 
567 3 5.73253 7.27293 9.6665 -0.005676 -0.00656534 -0.000239906 
569 4 5.56589 6.34064 9.52755 0.009042 -0.0161943 -0.0142149 
639 3 4.0976 10.0068 9.05872 -0.00211725 0.00354042 -0.00143841 
640 4 4.54109 9.1853 9.27001 -0.015981 0.000507828 0.0134245 
641 4 3.29278 9.98512 9.57644 -0.0122454 0.0151463 -0.0106281 
789 3 3.83789 6.84795 6.24748 0.00232012 -0.000363598 0.0031031 
790 4 4.51172 6.28291 5.86944 -0.00354007 -0.0127346 0.0117732 
791 4 4.10287 7.73449 6.00238 0.00162696 0.0117332 0.0338474 
927 3 4.78854 9.7 6.01052 -0.00135948 0.00131311 0.00044905 
928 4 3.86143 9.55524 5.82146 0.0195121 0.00918038 0.000899888 
929 4 4.84813 9.65874 6.96497 0.0183182 -0.0189142 -0.00845404 
948 3 0.951894 7.55458 10.7661 0.00459949 0.00275462 -0.00284318 
949 4 0.523085 6.92468 10.1868 -0.00723147 -0.0123168 0.0129471 
950 4 1.82273 7.1872 10.9175 0.0373908 0.0208585 0.0170879 
978 3 2.88477 5.51475 8.45014 -0.00242366 -0.00195617 0.00182968 
979 4 3.2297 5.78602 7.59946 0.0182492 0.0191296 -0.00848187 
318 3 11.0057 10.6932 8.90899 0.00734548 -1.95291e-05 -0.0019513 
393 3 7.06809 6.78939 7.04085 0.00109426 0.00633824 0.00333996 
394 4 6.26824 6.87223 7.56009 -0.00530511 -0.0277286 -0.00375563 
395 4 6.75972 6.66549 6.14319 -0.00345556 0.00315342 0.0142546 
495 3 8.94864 8.18634 10.5523 0.000732775 -0.00445378 -0.00253728 
496 4 8.88218 7.27498 10.8373 -0.0090794 -0.0017201 -0.0156612 
497 4 9.75338 8.21793 10.035 0.00641984 0.00512016 0.00781322 
511 4 6.89862 10.9961 9.28076 -0.0293512 -3.88525e-05 -0.00687166 
530 4 6.60559 10.1509 11.0369 -0.00129913 0.0109563 -0.0032055 
568 4 6.63852 7.31171 9.97296 0.00843632 -0.00742525 0.026584 
1083 3 8.29207 10.037 8.37049 0.00422395 0.00529316 0.00796202 
1084 4 8.43429 9.11168 8.17081 0.000871744 0.00535425 0.0156898 
1085 4 9.14587 10.3526 8.66656 0.0218887 -0.00185125 -0.00209847 
1121 4 8.65951 5.78714 7.77095 -0.00270709 0.0136988 -0.00781743 
6 3 13.6155 9.29656 9.39091 0.000305741 -0.00195541 -0.00298269 
7 4 13.6595 8.44168 8.96256 -0.00542485 -0.0150895 0.0320345 
8 4 13.8749 9.12501 10.2962 0.0233208 0.0123739 -0.0274335 
36 3 17.0258 7.58304 9.53715 -0.00345003 0.00115745 0.0010768 
37 4 16.8253 6.8711 10.1447 -0.0251923 -0.00390819 0.00935028 
319 4 11.8933 10.3593 9.03889 0.00894822 0.0396336 0.0165587 
408 3 12.3482 6.53435 11.2367 0.00186874 -0.00063891 -0.00460346 
409 4 12.6372 7.09938 10.5201 0.00810684 -0.0136908 0.00754096 
410 4 11.9152 5.79914 10.8029 -0.0182729 -0.0147224 0.010971 
471 3 13.5798 6.85089 8.59743 -0.000615877 0.00974394 -0.00131929 
472 4 13.4038 6.08523 8.0506 -0.00820772 0.000549578 0.0169247 
473 4 14.2943 6.57624 9.17213 0.00810873 0.00843292 -0.014374 
503 4 13.953 10.5589 7.01197 -0.0260657 0.0121113 0.000804046 
651 3 16.0991 6.87336 6.56575 -0.0057031 0.000624757 0.00516708 
652 4 16.8032 6.23495 6.45226 -0.0155803 -0.00143316 -0.0364565 
653 4 16.1903 7.17293 7.47028 -0.00439777 0.0214183 0.0123241 
38 4 17.3247 8.29945 10.0972 0.0168782 0.0134453 0.00554923 
201 3 18.3007 10.1526 6.31029 -0.00379938 -0.000823521 0.00973143 
202 4 19.1828 10.4807 6.13573 0.0183116 0.00207729 0.00920762 
203 4 17.9929 10.6742 7.05153 -0.0218672 -0.00941083 -0.00779026 
227 4 20.8533 5.69703 8.90402 -0.00287028 -0.0204624 -0.00828296 
243 3 21.1085 10.0566 11.2431 -0.00382332 0.00299322 0.00171227 
244 4 21.4174 10.0761 10.3374 0.00182016 -0.000325561 -0.0197236 
294 3 22.0063 10.2732 8.68435 0.00457315 -0.00158143 -0.000114839 
295 4 22.1012 9.54508 8.07032 0.00837542 -0.0184264 0.0033885 
296 4 22.4523 11.0056 8.25898 0.00348013 -0.0108353 8.00078e-05 
396 3 19.8076 7.67587 11.0574 -0.00527563 -0.000737276 0.00321387 
397 4 19.6896 7.30501 10.1829 -0.0112063 -0.0161678 0.0284885 
398 4 20.6075 8.19744 10.9909 -0.0111068 0.00462307 -0.020531 
417 3 19.4761 7.02808 8.26889 -0.00665319 0.00683011 0.000595189 
418 4 18.7243 7.59082 8.45398 -0.00804941 -0.00884175 -0.0272364 
419 4 19.4485 6.89457 7.32145 -0.0109944 0.014761 -0.0143797 
468 3 18.223 10.3278 10.6165 -0.000388488 -0.003328 -0.00247755 
469 4 19.1068 10.2073 10.9638 -0.0143263 0.0077652 0.0100123 
470 4 17.7287 10.7055 11.344 -0.00921568 -0.00328632 -0.0126677 
602 4 21.0856 9.79439 6.04347 -0.00737082 0.00128838 -0.00980988 
903 3 22.2149 8.07755 7.19293 0.00377833 -0.00200495 -0.00434472 
904 4 22.8083 7.41543 6.83843 0.00895366 0.00265936 -0.0118066 
905 4 21.5872 7.58087 7.71789 -0.0137621 0.0196734 0.00471518 
39 3 4.12106 13.0572 9.26659 -0.00259971 0.000528335 0.0020636 
40 4 3.71139 12.2208 9.04558 0.0071105 -0.00244171 0.0142693 
41 4 4.96396 12.8173 9.65153 -0.0244105 0.00431116 0.0166371 
108 3 1.02049 12.0351 7.47118 0.00211218 -0.00736722 0.00179096 
109 4 1.88787 11.6641 7.30931 0.000319914 0.0293847 -0.00526667 
110 4 1.075 12.929 7.13326 -0.0055418 -0.0118449 -0.0118063 
363 3 4.25645 15.6803 9.00872 0.0124471 -0.00920898 0.00131971 
364 4 4.42242 14.7529 9.1778 0.00802553 -0.01931 -0.0102225 
365 4 3.58287 15.6834 8.32864 -0.000547444 -0.00752001 0.00362722 
376 4 2.5859 14.4915 11.0492 0.0341467 0.00901089 -0.0196408 
498 3 1.7355 16.3963 7.72735 -0.00579519 -0.00414702 0.00404035 
500 4 1.42463 15.7518 7.09152 0.00644638 -0.038912 0.0056609 
540 3 1.46947 14.3414 6.24508 0.00190774 -0.00316786 -0.00656974 
542 4 2.39532 14.2908 6.00743 -0.0103932 -0.00432162 0.00530549 
549 3 1.21735 15.8162 10.1492 -0.00101543 -0.00320482 0.00133726 
550 4 1.26828 16.0302 9.21759 0.000198482 0.00215786 -0.00394381 
551 4 1.3192 16.6573 10.5946 0.000900354 0.00816987 0.0328075 
559 4 4.36434 16.117 10.7377 0.0106401 0.00441369 -0.0178464 
809 4 4.89167 14.8858 6.00174 -0.0016982 0.000191231 -0.0052609 
305 4 10.7625 12.219 6.11443 0.0179447 -0.00667137 -0.00210974 
320 4 11.1281 11.6081 8.65568 0.0208252 -0.0157343 -0.000262515 
510 3 6.53019 11.7079 9.80404 -0.00332047 -0.00611781 -0.00372418 
512 4 7.04806 12.4759 9.56291 0.00524001 0.00915378 0.00426573 
733 4 6.09049 12.3645 6.28662 -0.0133559 0.0279821 0.00786514 
792 3 7.96498 12.4693 7.2865 -0.0041434 0.00219521 0.00170402 
793 4 8.64122 12.8959 6.76024 -0.0064266 0.00122524 0.0152974 
794 4 8.37466 11.6607 7.59399 0.0330809 -0.00437308 0.0179055 
1098 3 7.32617 14.4555 9.95336 -0.00385343 0.00194243 -0.00666893 
1099 4 7.52605 15.3245 9.60527 -0.000769093 -0.00279384 -0.0290399 
1100 4 7.61535 14.4899 10.8652 0.00503381 0.0251529 -0.0100564 
1134 3 6.24244 15.3136 7.05752 0.000366418 -0.00437658 0.000898679 
1135 4 6.20263 15.9716 7.75154 -0.00351863 -0.00839043 -0.0253618 
1136 4 6.91022 14.6943 7.35203 0.0233539 -0.0108889 0.000456194 
24 3 14.8708 12.0695 9.52287 0.000833924 -0.0024026 -0.000628875 
25 4 14.3979 11.2993 9.20749 -0.0163624 0.0172199 -0.00577881 
26 4 14.3421 12.3938 10.2519 0.012457 0.0293173 -0.00390073 
42 3 16.2249 13.9838 6.36622 0.00532455 0.000503344 0.000920489 
43 4 16.7894 13.2506 6.61091 -0.0167548 -0.00467993 -0.00290251 
44 4 15.8085 14.2501 7.18598 0.0106497 0.0102977 -0.00264771 
126 3 12.6026 15.4287 10.4544 -0.00367954 0.00785059 0.00612047 
127 4 13.4681 15.1651 10.7667 -0.00790046 -0.00279848 -0.0058586 