ITEM: TIMESTEP
0
ITEM: NUMBER OF ATOMS
96
ITEM: BOX BOUNDS pp pp pp
2.9236100000000000e+00 1.2773600000000000e+01
4.0306300000000004e+00 1.3880599999999999e+01
2.1372399999999998e+00 1.1987200000000000e+01
ITEM: ATOMS id type x y z vx vy vz
1 1 7.0563 13.047 3.42438 -0.00532668 0.00410384 -0.00125641
2 2 6.52425 12.2624 3.5466 -0.011353 -0.0104554 -0.00183351
3 2 9.5601 13.2371 11.4046 -0.0273931 -0.0133362 0.00487105
4 1 12.4427 10.1654 2.52753 -0.00466098 0.00485914 0.00190414
5 2 11.5554 10.6122 2.45371 0.00209472 -0.0183354 -0.00667942
6 2 12.3267 9.32172 3.02963 -0.0141099 -0.000580103 -0.00245713
7 1 12.2153 7.49378 3.65338 -0.00502946 -0.00429883 0.00793279
8 2 11.2708 7.30941 3.83063 0.000227226 0.00150998 -0.0192406
9 2 7.93545 8.14175 8.48304 -0.00628902 -0.0108342 -0.0150247
10 1 7.36839 8.1119 9.24274 0.000112778 -0.00779249 -0.00335752
11 2 7.00596 7.23414 9.16042 0.0106287 0.0308368 -0.0127392
12 2 6.34556 9.91791 9.20193 0.00998965 -0.00326572 0.0273324
13 1 5.98322 8.62633 2.14548 -0.00035774 -0.00426313 0.0021603
14 2 6.35326 8.91813 11.183 -0.008605 0.0134594 -0.00885719
15 2 5.33171 7.98736 11.6648 0.00512337 0.0226715 -0.00263121
16 1 9.53063 8.10262 11.1258 -0.00389002 -0.00203324 0.00112265
17 2 9.15611 7.75441 11.985 -0.010882 -0.0216923 -0.0181748
18 2 8.733 8.00431 10.5222 -0.00133292 -0.00540621 0.0142194
19 1 4.66089 6.30471 11.1012 -0.00113876 -0.00369083 -0.00273855
20 2 4.46148 6.38953 2.198 0.00922798 -0.0131646 -0.0246911
21 2 11.3639 8.48463 9.83424 0.00586651 0.0137626 -0.0297132
22 1 9.84944 10.7971 11.5677 0.00316329 -0.0023235 -0.0042807
23 2 9.59308 11.0097 2.64163 0.00435004 0.0331901 5.07635e-05
24 2 9.68563 9.8196 11.3858 -0.0134474 0.00997197 -0.0161454
25 1 3.2056 8.30957 6.21475 0.00013309 0.00513454 0.000109038
26 2 3.42771 9.22441 6.29674 -0.000811369 -7.4482e-05 -0.00823554
27 2 3.4627 6.13802 3.69419 -0.0160124 -0.000235224 0.000522982
28 1 9.54725 6.81011 4.23999 0.00200497 -0.00390327 -0.0021335
29 2 8.87451 6.29947 4.67655 -0.0422351 0.0170581 0.00510415
30 2 9.30038 7.69234 4.47187 0.0267652 -0.0145886 0.0218053
31 1 3.68592 11.1306 5.77479 0.00471149 0.00166855 9.46534e-05
32 2 3.27074 12.6634 5.50321 0.00771339 -0.00347687 -0.00281859
33 2 4.29041 10.853 4.7846 0.00959805 -0.0205909 0.0262979
34 1 7.45777 4.8878 8.93603 0.00743679 0.00352159 0.000578365
35 2 7.92178 4.03502 9.04208 0.00121555 0.0136102 -0.00370118
36 2 7.42884 5.27583 9.83979 -0.00828823 -0.00707805 0.00689329
37 1 8.15754 12.0097 9.82792 -0.00885398 0.00195086 0.0029439
38 2 9.52743 12.6238 8.94112 0.0213695 0.0233709 -0.0168328
39 2 8.64285 11.5936 10.5385 -0.0141538 -0.027443 -0.0171063
40 1 12.683 13.5961 5.36417 -0.000417804 0.00297904 -0.00181726
41 2 3.7004 4.7165 4.25807 0.00421603 0.00503674 0.0116715
42 2 11.8424 13.3565 4.92816 -0.0128975 -0.0131879 0.0147603
43 1 4.20076 5.52442 3.95206 -0.00105355 0.00252601 0.007842
44 2 12.541 7.92586 4.4919 -0.017395 -0.0301541 0.0333454
45 2 7.62963 13.1523 4.16214 -0.021047 -0.0215 0.0224507
46 1 9.90621 13.0226 8.21238 0.00257861 0.00411454 0.00110612
47 2 8.62744 12.4934 7.23907 0.0216518 -0.010561 0.0175929
48 2 10.6559 12.4608 7.95694 -0.0013498 -0.0147837 -0.0158311
49 1 9.96373 6.79864 8.50307 -0.00684261 -0.00352106 -0.00439437
50 2 9.30849 6.0864 8.39869 -0.0126321 0.016492 -0.00561396
51 2 9.73079 7.13142 9.36526 0.0175533 0.0077667 0.00537072
52 1 9.09527 9.86635 4.51066 -0.000626997 0.00507465 -0.00111266
53 2 9.06473 9.53889 5.40594 0.0215894 -0.00165116 -0.00822192
54 2 8.95345 10.7651 4.58317 0.0132593 0.00107865 0.0124274
55 1 5.02117 10.7761 3.47952 0.00450014 0.00408557 0.0010278
56 2 5.33697 9.77918 3.37876 0.0125597 0.0111912 0.0190427
57 2 4.16532 10.8433 2.96525 -0.0333097 0.00652146 0.00142777
58 1 5.89574 10.6904 9.54878 -0.00201222 0.005113 -0.00145227
59 2 5.2205 13.1925 7.2264 0.024542 -0.0105276 -0.00378137
60 2 7.21011 11.785 9.99771 0.0161844 -0.0058365 -0.0330791
61 1 8.22693 5.271 6.47322 -0.002261 0.0015656 0.0045474
62 2 8.29612 4.91076 7.39989 0.0141278 -0.0137115 -0.0240368
63 2 7.44334 5.84804 6.44875 0.0144789 -0.00580414 -0.00853499
64 1 5.49192 12.2261 7.24585 0.000679006 -0.00184931 -0.00208764
65 2 4.42965 11.2983 6.38651 0.00423439 0.0110127 0.0157107
66 2 3.52113 4.60661 6.93916 -0.00694137 0.0278013 -0.0103194
67 1 11.6013 10.6392 7.81312 0.00569811 -0.00149825 -0.00402081
68 2 12.2211 10.7246 7.08819 0.00286939 0.0180274 0.00109622
69 2 11.9577 9.97986 8.41568 0.0143005 -0.00387201 -0.0129269
70 1 10.1807 12.6452 4.05792 0.00268307 -0.00211887 0.00289065
71 2 10.3952 13.3733 3.37792 0.0187555 -0.00997343 -0.0139471
72 2 9.52434 13.1218 4.6556 -0.00774694 0.0169223 0.0160665
73 1 9.55207 8.98476 7.0141 0.007178 -0.00140627 -0.00223274
74 2 9.91195 8.10076 7.19256 0.00614194 -0.000587473 0.0123069
75 2 10.1932 9.68951 7.25968 -0.0442717 0.00272684 0.0146797
76 1 12.4348 4.75744 9.87985 0.00523847 -0.00336887 -0.00361565
77 2 11.6716 5.17086 9.49093 -0.0103133 -0.0105689 0.00149406
78 2 3.99036 5.68739 10.7732 0.0146423 -0.00179741 0.0176561
79 1 12.2518 8.91066 9.75908 -0.00458057 -0.004456 0.00169844
80 2 12.4169 9.37785 10.6426 0.000194686 0.000354541 0.00671199
81 2 5.48007 11.0975 8.76565 0.00819453 -0.00172162 -0.0102449
82 1 7.50511 5.67924 11.4646 -0.00168906 0.00102867 -0.00385038
83 2 7.54389 4.74744 11.781 -0.00718441 -0.0273313 -0.0112259
84 2 6.64622 6.07363 11.6313 0.00112521 -0.0119414 -0.00692907
85 1 10.1822 13.8764 11.5928 0.00394562 -0.00520062 0.00545985
86 2 9.68113 4.81184 11.712 0.020508 0.0362648 -0.0107166
87 2 12.0212 4.20223 10.6087 -0.0111117 -0.0155699 0.0232781
88 1 8.01828 12.4151 6.4165 -0.00596316 0.00336925 0.00116434
89 2 6.49356 12.2314 7.01312 -0.000408438 0.00784211 0.0310142
90 2 7.96111 13.3256 6.11024 0.0284546 0.00623789 -0.0247884
91 1 5.61937 6.75134 6.11823 0.000817558 0.000224114 -0.000501461
92 2 4.04571 7.85167 6.22472 0.0141839 -0.0086964 -0.0287512
93 2 5.34781 5.9438 6.66845 -0.00742182 -0.0260196 0.0133678
94 1 4.2727 4.83469 7.50727 0.00204621 0.002925 -0.00141465
95 2 3.92367 4.98381 8.39361 -0.000317544 0.0157006 -0.0141317
96 2 5.28193 6.34607 5.22978 -0.0104646 0.00594607 0.0146352
ITEM: TIMESTEP
1
ITEM: NUMBER OF ATOMS
96
ITEM: BOX BOUNDS pp pp pp
2.9236100000000000e+00 1.2773600000000000e+01
4.0306300000000004e+00 1.3880599999999999e+01
2.1372399999999998e+00 1.1987200000000000e+01
ITEM: ATOMS id type x y z vx vy vz
1 1 7.05363 13.0491 3.42367 -0.00535159 0.00425578 -0.00155941
2 2 6.51882 12.2572 3.54617 -0.0101468 -0.00973571 -0.000146728
3 2 9.54482 13.2288 11.4064 -0.0327166 -0.0183916 0.00274275
4 1 12.4404 10.1678 2.52847 -0.00467839 0.00482293 0.00185369
5 2 11.5568 10.6024 2.45046 0.003045 -0.0204073 -0.0064229
6 2 12.3193 9.3219 3.028 -0.0154073 0.00120057 -0.00401473
7 1 12.2128 7.49168 3.65737 -0.00488678 -0.00408288 0.00802267
8 2 11.2707 7.30978 3.82089 -0.00100304 -0.000141953 -0.0196922
9 2 7.93276 8.1365 8.47516 -0.00446186 -0.0100093 -0.0163824
10 1 7.36843 8.10802 9.24108 8.49356e-05 -0.00761448 -0.00328946
11 2 7.01124 7.2493 9.15411 0.0097051 0.0281541 -0.0125293
12 2 6.35086 9.91581 9.21568 0.0110531 -0.00494893 0.0275448
13 1 5.98302 8.62417 2.14662 -0.000408725 -0.00431237 0.002369
14 2 6.34964 8.92565 11.1777 -0.00605094 0.0164631 -0.0117709
15 2 5.33407 7.99865 11.6638 0.00377345 0.0219508 -0.00163009
16 1 9.52858 8.10158 11.1264 -0.00429528 -0.0021242 0.00123908
17 2 9.15155 7.74389 11.975 -0.00731939 -0.0204393 -0.0213807
18 2 8.73292 8.00206 10.5299 0.000822126 -0.00359622 0.0162054
19 1 4.66033 6.30286 11.0998 -0.00105625 -0.00367786 -0.00270652
20 2 4.46609 6.38261 2.1856 0.00915445 -0.0142166 -0.0237686
21 2 11.3678 8.49205 9.81984 0.00905331 0.015618 -0.027657
22 1 9.85103 10.7959 11.5656 0.00318423 -0.00224618 -0.00426216
23 2 9.59535 11.0256 2.64138 0.00479579 0.0302722 -0.0014391
24 2 9.67883 9.82472 11.3783 -0.0138122 0.0104105 -0.013423
25 1 3.20562 8.3121 6.21477 -2.53153e-05 0.0049429 -1.46183e-05
26 2 3.42731 9.22562 6.29256 -0.000697996 0.00492655 -0.00848859
27 2 3.45478 6.13861 3.69457 -0.0153065 0.00234604 0.00108804
28 1 9.54826 6.80814 4.23888 0.00196636 -0.00400674 -0.00225898
29 2 8.85333 6.30759 4.67959 -0.0416535 0.0158003 0.006457
30 2 9.31364 7.68588 4.48291 0.0263637 -0.0108734 0.0223513
31 1 3.68837 11.1313 5.77459 0.00510075 0.00119995 -0.000872377
32 2 3.27507 12.6616 5.50203 0.00946375 -0.00333241 -0.00197026
33 2 4.29345 10.8437 4.80023 0.00270713 -0.0166274 0.0357367
34 1 7.46151 4.88953 8.93626 0.00751065 0.003417 0.000364705
35 2 7.9222 4.04164 9.04033 0.000682109 0.0124805 -0.00330393
36 2 7.42451 5.27281 9.84405 -0.00904885 -0.00498844 0.0100371
37 1 8.15303 12.0107 9.82939 -0.00910926 0.00218768 0.00291263
38 2 9.5372 12.6341 8.93543 0.0172334 0.0174351 -0.0050359
39 2 8.63698 11.5791 10.531 -0.00924704 -0.030729 -0.0127895
40 1 12.6827 13.5976 5.36325 -0.000604881 0.00280552 -0.00187863
41 2 3.70302 4.71849 4.26443 0.00622126 0.00286272 0.013785
42 2 11.8355 13.3502 4.93544 -0.014447 -0.0118745 0.0144637
43 1 4.20021 5.52569 3.95596 -0.00116975 0.00258427 0.00774563
44 2 12.5323 7.91047 4.50868 -0.0174076 -0.03135 0.0336412
45 2 7.61894 13.1408 4.174 -0.0218515 -0.0245192 0.0246384
46 1 9.90759 13.0248 8.21274 0.00297461 0.00462404 0.000250847
47 2 8.63815 12.4877 7.24762 0.0205807 -0.0118897 0.0156737
48 2 10.6555 12.453 7.94893 -0.000540622 -0.0163143 -0.0160989
49 1 9.9603 6.79682 8.50087 -0.00687028 -0.00370959 -0.00439663
50 2 9.30254 6.09495 8.39551 -0.0115338 0.0173983 -0.0070165
51 2 9.73984 7.13556 9.36809 0.0185932 0.00861343 0.00569362
52 1 9.09496 9.86878 4.50998 -0.000623636 0.00466626 -0.00159537
53 2 9.07559 9.53735 5.40327 0.0218456 -0.00454198 -0.00245479
54 2 8.95997 10.7682 4.58944 0.0128383 0.0112711 0.0126434
55 1 5.02344 10.7781 3.4801 0.00449345 0.00381758 0.00127253
56 2 5.34265 9.78642 3.38775 0.00999886 0.0177878 0.0167201
57 2 4.14882 10.8461 2.9656 -0.031581 0.0043533 0.000658946
58 1 5.89471 10.693 9.54806 -0.00209988 0.00513609 -0.00140646
59 2 5.23248 13.1867 7.22479 0.0229042 -0.0122206 -0.00267643
60 2 7.21749 11.7817 9.98062 0.0123038 -0.0074666 -0.0350076
61 1 8.2258 5.27178 6.47545 -0.00222261 0.00153461 0.00430757
62 2 8.30295 4.90438 7.38729 0.0130739 -0.0119935 -0.0255469
63 2 7.45053 5.84492 6.44476 0.0136131 -0.00630475 -0.007221
64 1 5.49231 12.2252 7.24485 0.000909568 -0.00156576 -0.00188879
65 2 4.43187 11.3039 6.39478 0.00431969 0.0113563 0.0170836
66 2 3.51723 4.62042 6.93385 -0.00839861 0.0274719 -0.010844
67 1 11.6041 10.6385 7.81107 0.00530947 -0.00114789 -0.00414828
68 2 12.2231 10.7337 7.08791 0.00531424 0.0185402 -0.00218966
69 2 11.9655 9.97682 8.41045 0.0168637 -0.00815859 -0.00817045
70 1 10.182 12.6443 4.05942 0.00243975 -0.00146591 0.00311741
71 2 10.4044 13.367 3.37127 0.017849 -0.0153531 -0.0124053
72 2 9.52165 13.1289 4.66292 -0.00252209 0.0113364 0.0126511
73 1 9.55558 8.98408 7.01297 0.00683123 -0.00137261 -0.00229502
74 2 9.91552 8.10033 7.19935 0.0082147 -0.00110572 0.0148708
75 2 10.1717 9.69052 7.2673 -0.0409827 0.00187462 0.0160652
76 1 12.4374 4.75569 9.87813 0.00512276 -0.00365333 -0.00323239
77 2 11.6663 5.16566 9.49164 -0.0106599 -0.0103627 0.00142633
78 2 3.99747 5.68645 10.7817 0.013262 -0.00253167 0.0156686
79 1 12.2495 8.90844 9.76001 -0.00460457 -0.00439513 0.0020098
80 2 12.4163 9.37722 10.6447 -0.00261594 -0.00298984 0.0014201
81 2 5.48433 11.0969 8.76064 0.00889153 -0.000961013 -0.00979457
82 1 7.50437 5.67974 11.4627 -0.00126798 0.000911009 -0.00379783
83 2 7.53909 4.73469 11.7758 -0.0119399 -0.0229338 -0.0096478
84 2 6.64627 6.06683 11.628 -0.00115685 -0.0151044 -0.00640698
85 1 10.1843 13.8739 11.5956 0.00450666 -0.0049358 0.00555683
86 2 9.69042 4.83078 11.7067 0.0172013 0.0382452 -0.0107737
87 2 12.016 4.19556 10.6189 -0.00905744 -0.0105871 0.0168436
88 1 8.01533 12.4168 6.4171 -0.0057967 0.00326342 0.00127154
89 2 6.49344 12.2351 7.02843 0.000476561 0.0068317 0.030036
90 2 7.97508 13.3299 6.09744 0.0275331 0.0101347 -0.0259386
91 1 5.61969 6.75124 6.11786 0.000456263 -0.000661474 -0.000906398
92 2 4.05372 7.84653 6.21048 0.0171827 -0.0113857 -0.0281857
93 2 5.34478 5.93256 6.676 -0.00448521 -0.0182609 0.0163127
94 1 4.27377 4.83614 7.50656 0.00223663 0.00287727 -0.00145792
95 2 3.92294 4.99152 8.3869 -0.00268202 0.0152403 -0.0123823
96 2 5.27751 6.35094 5.2378 -0.00733465 0.0133506 0.0169629
ITEM: TIMESTEP
2
ITEM: NUMBER OF ATOMS
96
ITEM: BOX BOUNDS pp pp pp
2.9236100000000000e+00 1.2773600000000000e+01
4.0306300000000004e+00 1.3880599999999999e+01
2.1372399999999998e+00 1.1987200000000000e+01
ITEM: ATOMS id type x y z vx vy vz
1 1 7.05095 13.0513 3.42282 -0.00538498 0.00432423 -0.00178052
2 2 6.5141 12.2527 3.54645 -0.00857367 -0.00803151 0.000979832
3 2 9.52738 13.2187 11.4073 -0.0358338 -0.0206746 0.0013364
4 1 12.438 10.1702 2.52938 -0.00462408 0.0047407 0.00182023
5 2 11.5584 10.5918 2.44729 0.00277384 -0.0214395 -0.00638072
6 2 12.3113 9.32292 3.02562 -0.0163145 0.00274599 -0.00542693
7 1 12.2104 7.4897 3.6614 -0.00468993 -0.00385973 0.00812538
8 2 11.2698 7.30927 3.81094 -0.00300795 -0.00199356 -0.0200772
9 2 7.93099 8.13174 8.46666 -0.00264337 -0.00884542 -0.0174426
10 1 7.36847 8.10429 9.23945 0.000142702 -0.00724829 -0.00324821
11 2 7.01567 7.26229 9.14789 0.00718595 0.0222416 -0.0123194
12 2 6.35661 9.91296 9.22947 0.0117501 -0.00622528 0.0275574
13 1 5.98281 8.62202 2.14785 -0.00036548 -0.00426942 0.00252228
14 2 6.34721 8.93459 11.1712 -0.00397352 0.0190398 -0.0134149
15 2 5.33548 8.00931 11.6632 0.00141942 0.0202276 -0.000973981
16 1 9.52633 8.1005 11.127 -0.00465738 -0.00221325 0.00134853
17 2 9.14879 7.73397 11.9636 -0.00374568 -0.0193712 -0.0234712
18 2 8.73382 8.00071 10.5384 0.00251951 -0.00185865 0.0171433
19 1 4.65983 6.30103 11.0985 -0.000895099 -0.00362584 -0.00276016
20 2 4.47063 6.37531 2.17423 0.00893357 -0.0147165 -0.0205803
21 2 11.373 8.50025 9.80658 0.010705 0.0167929 -0.0251521
22 1 9.85262 10.7949 11.5634 0.00319307 -0.00210784 -0.0042347
23 2 9.59788 11.04 2.64019 0.00533808 0.0267695 -0.00357062
24 2 9.67182 9.83001 11.3724 -0.0142663 0.0105893 -0.0102531
25 1 3.20557 8.31451 6.21474 -9.03827e-05 0.0046832 -0.000143188
26 2 3.42701 9.22934 6.28825 -0.000427088 0.00969944 -0.00876061
27 2 3.44739 6.14037 3.69528 -0.0139258 0.00438115 0.00184454
28 1 9.54922 6.8061 4.23773 0.00180803 -0.00419063 -0.00230971
29 2 8.83286 6.31527 4.68301 -0.0393898 0.0152746 0.00665439
30 2 9.32674 7.68147 4.49422 0.0261604 -0.00664832 0.0228264
31 1 3.69102 11.1318 5.77392 0.00549053 0.000732493 -0.00177862
32 2 3.2802 12.6601 5.50124 0.0108795 -0.00240782 -0.00129873
33 2 4.29312 10.8364 4.82034 -0.00382805 -0.0124984 0.0440209
34 1 7.46528 4.89122 8.93639 0.00755922 0.00336555 0.0001685
35 2 7.92246 4.0475 9.03878 0.000566041 0.0106255 -0.00288614
36 2 7.41979 5.27084 9.84983 -0.00984954 -0.00296712 0.0128585
37 1 8.14843 12.0119 9.83083 -0.00921173 0.0024589 0.00286294
38 2 9.54466 12.6412 8.93608 0.0125042 0.0110255 0.00795144
39 2 8.6336 11.5629 10.5257 -0.0044333 -0.0339827 -0.00855214
40 1 12.6824 13.5989 5.36229 -0.00081453 0.00257211 -0.00194018
41 2 3.70662 4.71936 4.27185 0.00813977 0.000630766 0.0158554
42 2 11.828 13.3446 4.94262 -0.0153652 -0.0103527 0.0143768
43 1 4.19959 5.527 3.95981 -0.00132538 0.00268621 0.00763581
44 2 12.5236 7.89451 4.52554 -0.0174067 -0.0324587 0.0336906
45 2 7.60778 13.1278 4.18678 -0.0229206 -0.0272154 0.0260561
46 1 9.90918 13.0272 8.21263 0.00342095 0.00511482 -0.000706342
47 2 8.64802 12.4815 7.25474 0.0183561 -0.0126838 0.0120314
48 2 10.6554 12.4445 7.94084 -0.000322249 -0.0173195 -0.0160951
49 1 9.95686 6.79493 8.49867 -0.00684377 -0.00382996 -0.00437189
50 2 9.29696 6.1038 8.39167 -0.0111978 0.0176705 -0.0082438
51 2 9.74938 7.14003 9.37095 0.0194384 0.00911503 0.00559558
52 1 9.09465 9.87102 4.50906 -0.000630855 0.00429189 -0.00206193
53 2 9.08658 9.53435 5.40349 0.0221238 -0.00734588 0.00301421
54 2 8.96629 10.7764 4.59581 0.0125565 0.0208771 0.0128644
55 1 5.02566 10.7799 3.48079 0.00435443 0.00357897 0.00147618
56 2 5.34697 9.79697 3.39548 0.00720976 0.0242301 0.0140403
57 2 4.13374 10.8477 2.96591 -0.0276967 0.00169036 0.0012407
58 1 5.89364 10.6955 9.54737 -0.00218681 0.00513062 -0.00135291
59 2 5.2434 13.1803 7.22372 0.0203283 -0.0126687 -0.00157922
60 2 7.22241 11.7775 9.9627 0.00655317 -0.00938004 -0.036424
61 1 8.22471 5.27253 6.47753 -0.00208748 0.00147599 0.00393489
62 2 8.30919 4.89877 7.37434 0.0118452 -0.0106977 -0.0253463
63 2 7.45695 5.84174 6.44153 0.0114605 -0.00604668 -0.00552028
64 1 5.49283 12.2245 7.24396 0.00116377 -0.00131309 -0.00165671
65 2 4.43397 11.3097 6.40359 0.00378703 0.0113488 0.0179244
66 2 3.51273 4.63408 6.92832 -0.00929192 0.0271838 -0.0111342
67 1 11.6066 10.6381 7.80897 0.00494523 -0.000818706 -0.00424728
68 2 12.2264 10.7431 7.086 0.00758828 0.0189622 -0.00521647
69 2 11.9746 9.9717 8.40751 0.0192073 -0.0119472 -0.00393329
70 1 10.1831 12.6437 4.06104 0.00217427 -0.000803227 0.00337449
71 2 10.413 13.3579 3.36551 0.0165014 -0.0205969 -0.0105527
72 2 9.52182 13.1331 4.66825 0.00345229 0.00553089 0.00829192
73 1 9.5589 8.98339 7.0118 0.00640088 -0.00142147 -0.00239444
74 2 9.92016 8.09965 7.20743 0.0103553 -0.00148712 0.0174771
75 2 10.1522 9.69138 7.27575 -0.0365035 0.00209028 0.0179356
76 1 12.4399 4.75379 9.87662 0.0048879 -0.00398028 -0.00278518
77 2 11.6609 5.1605 9.49236 -0.0102079 -0.0104073 0.00149526
78 2 4.00362 5.68486 10.7889 0.0108607 -0.00435525 0.0127578
79 1 12.2472 8.90626 9.76109 -0.00451752 -0.00428671 0.00228189
80 2 12.4143 9.37486 10.644 -0.00565197 -0.00641269 -0.00385641
81 2 5.48896 11.0965 8.75586 0.0096988 -0.000507157 -0.00937318
82 1 7.50384 5.68015 11.4608 -0.000829796 0.000690262 -0.0037141
83 2 7.53195 4.72451 11.7714 -0.0164964 -0.0172694 -0.00845728
84 2 6.64506 6.05853 11.6249 -0.00383433 -0.0179094 -0.00586709
85 1 10.1867 13.8715 11.5984 0.00486276 -0.00469478 0.00563411
86 2 9.69833 4.85009 11.7012 0.0149947 0.0377459 -0.0111237
87 2 12.0121 4.19164 10.6255 -0.00606675 -0.00476262 0.00918583
88 1 8.01248 12.4184 6.41777 -0.00555562 0.00322859 0.0014446
89 2 6.49404 12.2382 7.04316 0.00240803 0.00534167 0.028694
90 2 7.98864 13.3357 6.0843 0.0268419 0.0125682 -0.0260645
91 1 5.61983 6.75068 6.11732 7.34418e-05 -0.00158133 -0.00118003
92 2 4.06289 7.84028 6.19653 0.0187093 -0.0129902 -0.0275221
93 2 5.34332 5.92554 6.68476 -0.00124194 -0.00938181 0.0183082
94 1 4.27494 4.83757 7.50581 0.00240268 0.00282925 -0.00155341
95 2 3.92099 4.99905 8.38123 -0.00515422 0.0149367 -0.010114
96 2 5.2746 6.35942 5.24674 -0.00451988 0.0201853 0.0182083
ITEM: TIMESTEP
3
ITEM: NUMBER OF ATOMS
96
ITEM: BOX BOUNDS pp pp pp
2.9236100000000000e+00 1.2773600000000000e+01
4.0306300000000004e+00 1.3880599999999999e+01
2.1372399999999998e+00 1.1987200000000000e+01
ITEM: ATOMS id type x y z vx vy vz
1 1 7.04825 13.0534 3.42189 -0.00541869 0.00431205 -0.00190926
2 2 6.51025 12.2492 3.54715 -0.00679131 -0.00550141 0.00149348
3 2 9.50898 13.2081 11.4078 -0.0365683 -0.0202552 0.000639764
4 1 12.4357 10.1726 2.53029 -0.00450129 0.00461833 0.00180364
5 2 11.5596 10.5809 2.44408 0.00130292 -0.0214002 -0.00658208
6 2 12.303 9.32464 3.02257 -0.0167964 0.00393699 -0.00662199
7 1 12.2081 7.48782 3.66549 -0.004451 -0.00363433 0.00824418
8 2 11.2677 7.30779 3.80081 -0.00556212 -0.00398682 -0.0204072
9 2 7.93012 8.12766 8.45771 -0.000889396 -0.00730571 -0.018087
10 1 7.36857 8.10078 9.23783 0.000282109 -0.00671987 -0.00324526
11 2 7.01843 7.27154 9.14179 0.00318535 0.0134904 -0.0120559
12 2 6.36261 9.90959 9.24323 0.0120226 -0.00699324 0.0273891
13 1 5.98265 8.61991 2.14914 -0.000232457 -0.00413774 0.0026017
14 2 6.34567 8.94469 11.1643 -0.002519 0.0210073 -0.0135534
15 2 5.33549 8.01888 11.6628 -0.00172525 0.0177071 -0.000657703
16 1 9.52392 8.09937 11.1277 -0.0049533 -0.00229112 0.00144454
17 2 9.1478 7.72452 11.9515 -0.000318093 -0.018628 -0.0242451
18 2 8.73544 8.0002 10.5471 0.00354347 -0.00022397 0.0169593
19 1 4.65944 6.29924 11.0971 -0.00067096 -0.0035418 -0.00289342
20 2 4.47503 6.36789 2.16502 0.0085937 -0.0147474 -0.0153528
21 2 11.3785 8.50884 9.79468 0.0105855 0.017179 -0.0223047
22 1 9.85422 10.7938 11.5613 0.00318739 -0.00191041 -0.00420975
23 2 9.60069 11.0524 2.63781 0.00591267 0.0228221 -0.00611372
24 2 9.66456 9.83531 11.3681 -0.0148032 0.0104464 -0.00675948
25 1 3.20553 8.31678 6.21463 -4.82708e-05 0.00437625 -0.00027885
26 2 3.42688 9.23532 6.2838 -7.17903e-05 0.0137441 -0.00909731
27 2 3.44086 6.14299 3.69642 -0.0119424 0.0057778 0.00283333
28 1 9.55007 6.80395 4.23657 0.0015303 -0.00442263 -0.00228441
29 2 8.81394 6.32287 4.68624 -0.0354953 0.0154266 0.0057596
30 2 9.3398 7.67924 4.50574 0.0262264 -0.0023472 0.0231482
31 1 3.69386 11.132 5.77281 0.0058573 0.000272308 -0.00259531
32 2 3.28595 12.6592 5.50073 0.0118304 -0.000593967 -0.000869431
33 2 4.28963 10.8312 4.84425 -0.00980238 -0.00841424 0.0507939
34 1 7.46907 4.89289 8.93643 0.00758435 0.00336679 3.8119e-06
35 2 7.92277 4.05227 9.03744 0.000799819 0.00819091 -0.00243151
36 2 7.41466 5.26985 9.8569 -0.0106398 -0.00115182 0.0151091
37 1 8.14382 12.0132 9.83225 -0.00916154 0.00274554 0.00282482
38 2 9.5497 12.6451 8.94338 0.00783102 0.0047591 0.0208811
39 2 8.63255 11.5451 10.5225 -0.000152988 -0.0369176 -0.00484457
40 1 12.6819 13.6001 5.36131 -0.00104506 0.0022822 -0.00199991
41 2 3.71116 4.71912 4.28029 0.00994372 -0.00147531 0.0178014
42 2 11.8201 13.3399 4.94982 -0.0155597 -0.00868267 0.0145145
43 1 4.19888 5.52838 3.96359 -0.00151638 0.0028264 0.00751369
44 2 12.5149 7.87801 4.54237 -0.0174349 -0.0334736 0.0334921
45 2 7.59602 13.1135 4.20006 -0.0242384 -0.0294914 0.0266031
46 1 9.91101 13.0299 8.21203 0.00387949 0.00553563 -0.00169013
47 2 8.65651 12.475 7.25965 0.0151828 -0.0129049 0.00697009
48 2 10.6552 12.4356 7.93284 -0.00085057 -0.0176949 -0.015705
49 1 9.95345 6.79299 8.4965 -0.00675829 -0.00387989 -0.00432116
50 2 9.29134 6.11262 8.38727 -0.0116592 0.01731 -0.00926972
51 2 9.75928 7.14468 9.37368 0.0200579 0.0092369 0.00505011
52 1 9.09433 9.87308 4.50792 -0.000655921 0.00399585 -0.00247109
53 2 9.09771 9.53001 5.40628 0.0224362 -0.00974031 0.00761694
54 2 8.97252 10.7891 4.6023 0.0125584 0.0288312 0.0130775
55 1 5.02779 10.7817 3.48158 0.00409462 0.00339049 0.00163272
56 2 5.34986 9.81065 3.40179 0.00442986 0.0300657 0.0110685
57 2 4.12112 10.8478 2.96684 -0.021902 -0.00129848 0.00306177
58 1 5.89253 10.6981 9.54671 -0.00226562 0.00509146 -0.00128966
59 2 5.25281 13.174 7.22321 0.0168959 -0.0118446 -0.000511673
60 2 7.22405 11.7723 9.9442 -0.000513839 -0.0115718 -0.0374173
61 1 8.22371 5.27325 6.47939 -0.00186711 0.00139832 0.00343387
62 2 8.31479 4.89368 7.36194 0.0105116 -0.00991459 -0.0234208
63 2 7.46199 5.83887 6.43924 0.00814121 -0.00509594 -0.00351254
64 1 5.49348 12.2239 7.24319 0.00144677 -0.00109727 -0.00139459
65 2 4.43566 11.3153 6.41271 0.00273815 0.0110284 0.0183432
66 2 3.50794 4.64761 6.92271 -0.00949707 0.0269485 -0.0111172
67 1 11.609 10.6377 7.80683 0.0046298 -0.00053235 -0.0043169
68 2 12.2307 10.7527 7.08269 0.00941815 0.0191968 -0.00760774
69 2 11.9847 9.96487 8.40651 0.0211447 -0.0148414 -0.000578198
70 1 10.1842 12.6435 4.06279 0.00190847 -0.000176275 0.00365726
71 2 10.4209 13.3464 3.36072 0.0148425 -0.0253411 -0.00869444
72 2 9.5251 13.1344 4.67122 0.00968716 -0.000147794 0.00342952
73 1 9.56199 8.98265 7.01058 0.00591183 -0.00154712 -0.00252714
74 2 9.92588 8.09884 7.21682 0.0124452 -0.00163138 0.020067
75 2 10.1352 9.69261 7.28524 -0.0310932 0.00324147 0.0202392
76 1 12.4423 4.75171 9.87534 0.00455749 -0.00432499 -0.0023067
77 2 11.656 5.15525 9.49314 -0.00902463 -0.0106387 0.00164048
78 2 4.00833 5.6821 10.7944 0.00765532 -0.00706449 0.00907864
79 1 12.245 8.90415 9.76229 -0.00431486 -0.00414177 0.00248896
80 2 12.4107 9.37081 10.6408 -0.00875305 -0.00962631 -0.00867701
81 2 5.49403 11.0964 8.75127 0.0106049 -0.000347582 -0.00901614
82 1 7.50354 5.68043 11.459 -0.000390133 0.000388394 -0.00360376
83 2 7.5226 4.71742 11.7674 -0.0207216 -0.0107386 -0.00755064
84 2 6.64243 6.04892 11.6221 -0.00679355 -0.020296 -0.00535946
85 1 10.1892 13.8692 11.6012 0.00500511 -0.00447887 0.00568334
86 2 9.70542 4.86853 11.6955 0.0138531 0.034869 -0.0116796
87 2 12.01 4.19079 10.6281 -0.00244663 0.00144836 0.000896275
88 1 8.00977 12.42 6.41854 -0.00524891 0.0032751 0.00166123
89 2 6.49585 12.2405 7.05713 0.00520097 0.00344925 0.0270494
90 2 8.00192 13.3424 6.07137 0.026328 0.0133723 -0.0250896
91 1 5.61977 6.74966 6.11668 -0.000303933 -0.00247729 -0.001315
92 2 4.07243 7.83354 6.18296 0.0186151 -0.0133686 -0.0266977
93 2 5.34354 5.92317 6.6943 0.00207418 5.26952e-05 0.01947
94 1 4.27618 4.83897 7.50501 0.00252924 0.00278165 -0.00168921
95 2 3.91779 5.00646 8.37679 -0.00760297 0.0147364 -0.00759441
96 2 5.27299 6.37113 5.25601 -0.00221699 0.0261051 0.0181434
ITEM: TIMESTEP
4
ITEM: NUMBER OF ATOMS
96
ITEM: BOX BOUNDS pp pp pp
2.9236100000000000e+00 1.2773600000000000e+01
4.0306300000000004e+00 1.3880599999999999e+01
2.1372399999999998e+00 1.1987200000000000e+01
ITEM: ATOMS id type x y z vx vy vz
1 1 7.04553 13.0556 3.42091 -0.00544502 0.00422638 -0.00194038
2 2 6.50731 12.2472 3.54795 -0.00498127 -0.00235755 0.00135985
3 2 9.49082 13.1985 11.408 -0.0349817 -0.0173812 0.00058998
4 1 12.4335 10.1748 2.53119 -0.00432132 0.00446328 0.00180339
5 2 11.5597 10.5704 2.44071 -0.00122276 -0.0203439 -0.00704172
6 2 12.2945 9.32686 3.01899 -0.016834 0.0046996 -0.00755656
7 1 12.206 7.48606 3.66965 -0.00418623 -0.0034116 0.00838198
8 2 11.2642 7.30528 3.79053 -0.00837277 -0.00605117 -0.0206878
9 2 7.9301 8.12443 8.44857 0.000613391 -0.00548981 -0.0181054
10 1 7.36876 8.09757 9.23621 0.000487728 -0.00608237 -0.00329399
11 2 7.01885 7.27578 9.13583 -0.00185022 0.00285958 -0.0117334
12 2 6.36864 9.90597 9.25686 0.0118465 -0.0072051 0.0270487
13 1 5.98258 8.61788 2.15045 -2.35904e-05 -0.00392879 0.00259604
14 2 6.34469 8.9556 11.1577 -0.001762 0.0222372 -0.0121019
15 2 5.33376 8.02702 11.6625 -0.0053793 0.0146414 -0.000627194
16 1 9.52138 8.0982 11.1285 -0.00516523 -0.00234923 0.00152082
17 2 9.14847 7.71534 11.9394 0.00282219 -0.0183297 -0.0235908
18 2 8.73737 8.00049 10.5554 0.00366183 0.00134242 0.0157282
19 1 4.65916 6.29749 11.0956 -0.0004085 -0.00343825 -0.00308906
20 2 4.47923 6.36057 2.15888 0.00818171 -0.014423 -0.00854434
21 2 11.3835 8.51743 9.78428 0.00860676 0.0167417 -0.0192316
22 1 9.85581 10.7929 11.5592 0.00316632 -0.00165819 -0.00420061
23 2 9.60379 11.0628 2.63408 0.00644626 0.0185807 -0.00880999
24 2 9.65701 9.84046 11.3656 -0.0154171 0.0099226 -0.00305657
25 1 3.20553 8.31889 6.21446 0.000103661 0.00404417 -0.00042385
26 2 3.42694 9.24308 6.27915 0.000297883 0.0166525 -0.00952889
27 2 3.43545 6.14614 3.69811 -0.00946442 0.00650085 0.00404862
28 1 9.55075 6.80168 4.23545 0.0011447 -0.00466616 -0.00218682
29 2 8.79736 6.3307 4.68877 -0.0301742 0.0161174 0.00392554
30 2 9.35297 7.67912 4.51737 0.026604 0.00160824 0.0232244
31 1 3.69688 11.1321 5.77132 0.00617445 -0.000171973 -0.00329311
32 2 3.29203 12.6595 5.50037 0.0122319 0.00214468 -0.000724418
33 2 4.28331 10.828 4.87113 -0.0149763 -0.00461297 0.0557762
34 1 7.47287 4.89458 8.9364 0.00758972 0.00341523 -0.000118821
35 2 7.92326 4.05569 9.03634 0.00128511 0.00537 -0.00192056
36 2 7.40915 5.26969 9.86494 -0.0113629 0.000340146 0.0165826
37 1 8.13927 12.0146 9.83366 -0.00897549 0.00302332 0.00282836
38 2 9.55249 12.646 8.95697 0.00380349 -0.000769073 0.0324925
39 2 8.63345 11.526 10.5209 0.00319897 -0.0392391 -0.0020576
40 1 12.6814 13.6012 5.36029 -0.00129295 0.00194283 -0.00205474
41 2 3.71656 4.71789 4.28966 0.0116084 -0.0032871 0.0195451
42 2 11.8124 13.3359 4.95714 -0.0150076 -0.00692793 0.0148582
43 1 4.19807 5.52983 3.96732 -0.00173483 0.0029972 0.00738066
44 2 12.5062 7.86104 4.55903 -0.017538 -0.034389 0.0330368
45 2 7.58354 13.0983 4.21338 -0.025749 -0.0312493 0.0262386
46 1 9.91306 13.0328 8.21094 0.00431652 0.00584258 -0.00262544
47 2 8.6632 12.4686 7.26171 0.0113307 -0.0125625 0.000905235
48 2 10.6545 12.4268 7.92514 -0.00220761 -0.0173743 -0.0148462
49 1 9.9501 6.79105 8.49435 -0.0066132 -0.00386212 -0.0042475
50 2 9.2853 6.12111 8.3824 -0.0128898 0.0163804 -0.0100694
51 2 9.76944 7.14927 9.376 0.0204874 0.00890048 0.00397973
52 1 9.09399 9.87501 4.50659 -0.000701352 0.00381063 -0.00278882
53 2 9.10901 9.52461 5.4111 0.0227732 -0.0114745 0.0109169
54 2 8.97885 10.8052 4.60889 0.012928 0.0343361 0.0132397
55 1 5.02976 10.7833 3.48243 0.00373363 0.00327562 0.0017393
56 2 5.3514 9.82703 3.40655 0.00192003 0.0347897 0.00787418
57 2 4.11184 10.8464 2.96897 -0.0145964 -0.00443158 0.00586454
58 1 5.89137 10.7006 9.54608 -0.00233019 0.00501597 -0.00121367
59 2 5.2603 13.1684 7.22321 0.0127566 -0.0098516 0.000509664
60 2 7.2219 11.766 9.92529 -0.00818924 -0.0139862 -0.038076
61 1 8.22284 5.27393 6.48096 -0.00157949 0.00131203 0.0028188
62 2 8.31971 4.88885 7.35092 0.00912516 -0.00964692 -0.0199088
63 2 7.46509 5.83664 6.43802 0.00389276 -0.00360653 -0.00126617
64 1 5.49428 12.2234 7.24257 0.00176301 -0.000919355 -0.00110738
65 2 4.43671 11.3207 6.42194 0.00131063 0.0104541 0.0184697
66 2 3.50323 4.66103 6.9172 -0.00894028 0.0267619 -0.0107474
67 1 11.6112 10.6375 7.80465 0.00438221 -0.000305293 -0.0043572
68 2 12.2358 10.7623 7.07839 0.0105874 0.0191582 -0.00907469
69 2 11.9957 9.95686 8.40693 0.0225216 -0.0165378 0.0016337
70 1 10.185 12.6436 4.06469 0.00166362 0.000372311 0.00395952
71 2 10.4279 13.3326 3.35682 0.0130178 -0.029275 -0.00711406
72 2 9.53151 13.133 4.67168 0.0156886 -0.00535074 -0.00148175
73 1 9.56481 8.98184 7.00928 0.00539304 -0.00173624 -0.00268437
74 2 9.93261 8.09802 7.2275 0.014372 -0.00144485 0.0225773
75 2 10.1211 9.69463 7.29598 -0.0250788 0.00507018 0.0228623
76 1 12.4445 4.74946 9.87431 0.00416095 -0.0046634 -0.00182871
77 2 11.6519 5.14986 9.494 -0.00723719 -0.0109725 0.00178529
78 2 4.01128 5.67779 10.7979 0.0039677 -0.0103357 0.00486154
79 1 12.2429 8.90212 9.76358 -0.00400083 -0.00397452 0.00260851
80 2 12.4055 9.36523 10.6353 -0.0117679 -0.0123596 -0.0126218