ITEM: TIMESTEP
0
ITEM: NUMBER OF ATOMS
96
ITEM: BOX BOUNDS pp pp pp
2.9236100000000000e+00 1.2773600000000000e+01
4.0306300000000004e+00 1.3880599999999999e+01
2.1372399999999998e+00 1.1987200000000000e+01
ITEM: ATOMS id type x y z vx vy vz
1 1 7.06162 13.0431 3.42526 0.00533296 -0.00355761 0.000463512
2 2 6.53632 12.2725 3.55061 0.0122667 0.00869021 0.00661159
3 2 9.58043 13.2428 11.3969 0.0123113 -0.00415489 -0.011
4 1 12.4473 10.1606 2.52556 0.00443705 -0.00477908 -0.00205429
5 2 11.5553 10.6275 2.46082 0.00298612 0.0115933 0.00767653
6 2 12.3392 9.32417 3.03048 0.01054 0.00421332 -0.000704489
7 1 12.2204 7.49828 3.64552 0.00513199 0.00469139 -0.00777937
8 2 11.2703 7.30649 3.84934 8.05633e-05 -0.00406941 0.0180941
9 2 7.94355 8.15315 8.4965 0.0098342 0.0117448 0.0118322
10 1 7.36817 8.11969 9.24618 -0.000392432 0.00760403 0.00353615
11 2 6.9959 7.20378 9.17341 -0.0081858 -0.0270402 0.0132476
12 2 6.33691 9.91924 9.17504 -0.00713902 -0.000696707 -0.0261801
13 1 5.98343 8.63046 2.14356 5.80241e-06 0.00391459 -0.00167354
14 2 6.36469 8.90788 11.1881 0.0142954 -0.00704949 0.000751035
15 2 5.32635 7.96506 11.6687 -0.0045191 -0.020846 0.00548963
16 1 9.5341 8.10457 11.1248 0.00305564 0.0018818 -0.000895708
17 2 9.17038 7.77739 2.14921 0.0173443 0.0241545 0.00961913
18 2 8.73678 8.01149 10.5108 0.00624686 0.00890283 -0.00800381
19 1 4.66203 6.30837 11.1041 0.00105184 0.00359661 0.0030349
20 2 4.45234 6.40108 2.22135 -0.00890493 0.00939883 0.0199325
21 2 11.3624 8.47324 9.86547 0.0036774 -0.00871172 0.0321442
22 1 9.8463 10.7995 11.5719 -0.00310145 0.00229624 0.0042633
23 2 9.58903 10.9743 2.6409 -0.00392088 -0.0368038 -0.000471223
24 2 9.69881 9.81027 11.4041 0.0130183 -0.00851704 0.0197539
25 1 3.20524 8.30432 6.21453 -0.000623086 -0.00525519 -0.000346022
26 2 3.42841 9.22917 6.30468 0.000320121 0.00863483 0.0075627
27 2 3.47873 6.14124 3.6941 0.0153968 0.00642976 0.000296702
28 1 9.54531 6.81402 4.24193 -0.00177796 0.00401635 0.00168906
29 2 8.91576 6.28047 4.67391 0.0389711 -0.021429 0.00079733
30 2 9.2731 7.70973 4.45062 -0.0278106 0.0189826 -0.0207095
31 1 3.68158 11.1284 5.7737 -0.0040039 -0.00259247 -0.00209924
32 2 3.26495 12.6664 5.50697 -0.00386588 0.00211717 0.0047146
33 2 4.27375 10.8773 4.76853 -0.0237231 0.0273757 -0.00546522
34 1 7.45043 4.88413 8.93524 -0.00721526 -0.00386716 -0.000989963
35 2 7.91958 13.8711 9.04617 -0.00361889 -0.0134104 0.00446841
36 2 7.43644 5.28492 9.83609 0.00702732 0.0108721 -0.00070927
37 1 8.16599 12.008 9.82499 0.00792227 -0.00164587 -0.00281242
38 2 9.50311 12.5955 8.96751 -0.0256637 -0.0317694 0.0329864
39 2 8.66157 11.618 10.5595 0.0225624 0.0216768 0.0242161
40 1 12.6833 13.593 5.36592 0.000107783 -0.00315041 0.0016965
41 2 3.69824 4.70953 4.24847 -6.86447e-05 -0.00848465 -0.0076196
42 2 11.8533 13.3707 4.91294 0.00856019 0.0149871 -0.0157585
43 1 4.20173 5.52191 3.94414 0.000936661 -0.00254717 -0.00799191
44 2 12.5583 7.95474 4.4591 0.0171917 0.02753 -0.0320018
45 2 7.6501 13.1706 4.1425 0.0200801 0.0148194 -0.0164073
46 1 9.90395 13.019 8.21058 -0.00202824 -0.00320981 -0.00231252
47 2 8.60599 12.5022 7.22144 -0.019949 0.00664496 -0.0157598
48 2 10.6584 12.4737 7.97235 0.00393193 0.0106638 0.0149466
49 1 9.9705 6.80192 8.50743 0.00666 0.00297211 0.0043152
50 2 9.32288 6.07138 8.40275 0.0166832 -0.0130869 0.00237615
51 2 9.71437 7.12487 9.36068 -0.0152341 -0.00504339 -0.00343262
52 1 9.0959 9.86088 4.51132 0.000619483 -0.00580013 0.00026602
53 2 9.04341 9.5379 5.41961 -0.0209711 -0.00308711 0.0182351
54 2 8.93981 10.7736 4.57097 -0.0137897 0.0165249 -0.0119278
55 1 5.0168 10.7717 3.47877 -0.00412369 -0.0046468 -0.000450279
56 2 5.32228 9.77437 3.35782 -0.0162053 0.00103989 -0.0223853
57 2 4.19812 10.8353 2.96168 0.0301536 -0.00881293 -0.00698482
58 1 5.89767 10.6854 9.55027 0.00186382 -0.00501265 0.00151954
59 2 5.19527 13.2002 7.23127 -0.0250191 0.00409713 0.0059095
60 2 7.19225 11.7894 10.0283 -0.0172299 0.00325817 0.0274656
61 1 8.22913 5.26943 6.46856 0.00203712 -0.00152536 -0.00465827
62 2 8.2812 4.92647 7.42087 -0.0153538 0.0178076 0.0166957
63 2 7.42928 5.85261 6.45813 -0.0124667 0.00269855 0.00966708
64 1 5.49146 12.2283 7.2481 -0.000270183 0.00246335 0.00238299
65 2 4.42617 11.288 6.37277 -0.00208325 -0.00924798 -0.0111472
66 2 3.52622 4.57846 6.94881 0.00301203 -0.0284568 0.0089363
67 1 11.5953 10.641 7.81699 -0.00644298 0.00216257 0.0036896
68 2 12.2206 10.7071 7.08396 0.00135421 -0.0170868 -0.0067799
69 2 11.946 9.97939 8.43346 -0.00930115 -0.00442312 0.0222875
70 1 10.1778 12.6479 4.05522 -0.00301573 0.00321681 -0.00254347
71 2 10.3761 13.3781 3.3928 -0.0189053 0.000331645 0.0149686
72 2 9.53611 13.0999 4.63747 0.0141665 -0.0261402 -0.0185185
73 1 9.54465 8.98628 7.01631 -0.00755002 0.00170674 0.00221475
74 2 9.90769 8.10078 7.18272 -0.00267834 -0.000497663 -0.00751216
75 2 10.2394 9.68487 7.2459 0.0466877 -0.00749887 -0.0132995
76 1 12.4296 4.76059 9.88375 -0.00505576 0.00302563 0.00406251
77 2 11.6808 5.18192 9.4892 0.00731869 0.0118461 -0.00216439
78 2 3.97546 5.68963 10.7546 -0.0140273 0.00381077 -0.0186143
79 1 12.2563 8.91512 9.7577 0.00424914 0.00440527 -0.00106882
80 2 12.4142 9.37453 10.631 -0.00449567 -0.00565418 -0.0156152
81 2 5.47246 11.1003 8.77636 -0.00709382 0.00408505 0.0111733
82 1 7.50719 5.67821 11.4684 0.00243326 -0.000895229 0.00384453
83 2 7.54625 4.77756 11.7943 -0.00242796 0.0310524 0.0159087
84 2 6.64328 6.08212 11.6387 -0.00424399 0.00485324 0.00774912
85 1 10.179 4.03194 11.5874 -0.00238071 0.0057693 -0.0052516
86 2 9.65631 4.78002 11.723 -0.0298663 -0.0252743 0.0117506
87 2 12.0331 4.22151 10.5807 0.0113619 0.0213061 -0.0303344
88 1 8.02433 12.4116 6.41536 0.00605039 -0.00370401 -0.00121736
89 2 6.49374 12.2231 6.98154 -0.00112391 -0.00830879 -0.0317414
90 2 7.9315 13.3244 6.13303 -0.0309427 0.00439644 0.020199
91 1 5.61824 6.75032 6.1182 -0.00138085 -0.00166762 -0.000642707
92 2 4.03569 7.85683 6.254 -0.00512485 0.00110696 0.029787
93 2 5.35763 5.97594 6.65906 0.0115053 0.0362119 -0.00433988
94 1 4.27086 4.83172 7.5087 -0.00165691 -0.00302304 0.00150695
95 2 3.92185 4.96746 8.40875 -0.00365996 -0.0171882 0.0152788
96 2 5.29563 6.34772 5.21827 0.0168225 0.0090378 -0.00791367
ITEM: TIMESTEP
1
ITEM: NUMBER OF ATOMS
96
ITEM: BOX BOUNDS pp pp pp
2.9236100000000000e+00 1.2773600000000000e+01
4.0306300000000004e+00 1.3880599999999999e+01
2.1372399999999998e+00 1.1987200000000000e+01
ITEM: ATOMS id type x y z vx vy vz
1 1 7.06429 13.0414 3.42538 0.00537479 -0.00317988 9.14977e-06
2 2 6.54243 12.2764 3.55461 0.0119399 0.00632214 0.00953665
3 2 9.58452 13.2381 11.3905 0.00439005 -0.0147998 -0.0145097
4 1 12.4495 10.1582 2.52451 0.00425924 -0.00465995 -0.00215253
5 2 11.5576 10.6323 2.46481 0.00664715 0.00733609 0.00832678
6 2 12.344 9.3267 3.02975 0.0083833 0.00570267 -0.00208214
7 1 12.223 7.50067 3.64165 0.00509373 0.00486057 -0.00771122
8 2 11.2706 7.3042 3.85822 0.00162031 -0.0049505 0.0173842
9 2 7.94888 8.15908 8.50201 0.0113841 0.0118866 0.0102751
10 1 7.36792 8.12343 9.24797 -0.000612356 0.00728765 0.00362973
11 2 6.99242 7.19142 9.1801 -0.00524238 -0.0213638 0.0134803
12 2 6.33373 9.91839 9.16216 -0.00557768 -0.0026158 -0.0251689
13 1 5.98337 8.63236 2.14278 -0.00025705 0.00364498 -0.0014482
14 2 6.37254 8.90514 11.1874 0.0169288 -0.00409624 -0.0035164
15 2 5.32444 7.95513 11.6719 -0.00266976 -0.0184138 0.00717184
16 1 9.53553 8.1055 11.1244 0.0026805 0.00183675 -0.00079938
17 2 9.17977 7.78974 2.15285 0.01995 0.0250793 0.00498113
18 2 8.74051 8.01636 10.5077 0.00848893 0.0105138 -0.0041964
19 1 4.66252 6.31015 11.1057 0.000895304 0.00349816 0.00326869
20 2 4.44797 6.40518 2.23022 -0.00854219 0.00681019 0.0148227
21 2 11.3656 8.46958 9.88169 0.00916477 -0.00595816 0.0324144
22 1 9.84476 10.8006 11.574 -0.0030708 0.00219617 0.0042244
23 2 9.58708 10.9557 2.64085 -0.00397264 -0.0373325 0.000724217
24 2 9.70529 9.80623 11.4142 0.0129719 -0.00756392 0.0204297
25 1 3.20486 8.3017 6.21433 -0.000884356 -0.00517417 -0.000457915
26 2 3.42844 9.23432 6.30835 -0.000351674 0.0112478 0.00703787
27 2 3.48619 6.14527 3.69434 0.0142132 0.00965098 0.000716093
28 1 9.54447 6.81607 4.24271 -0.00156197 0.0042382 0.00139698
29 2 8.93454 6.2691 4.67528 0.0357847 -0.0240864 0.00495825
30 2 9.25906 7.71945 4.4404 -0.0282784 0.0191554 -0.020192
31 1 3.67966 11.127 5.7724 -0.00370695 -0.0030417 -0.00308007
32 2 3.26349 12.6672 5.50956 -0.0021187 0.00103371 0.00558525
33 2 4.26013 10.8917 4.76847 -0.0306037 0.0299803 0.00503822
34 1 7.44686 4.88214 8.9347 -0.00707291 -0.00408694 -0.00115266
35 2 7.91736 13.8646 9.0485 -0.00543457 -0.0121006 0.00483803
36 2 7.43982 5.29076 9.83644 0.00655866 0.0122941 0.00182408
37 1 8.1698 12.0072 9.82362 0.00728848 -0.00159563 -0.00259315
38 2 9.49017 12.5789 8.98525 -0.0251583 -0.0335901 0.0362783
39 2 8.6737 11.6282 10.5723 0.0253921 0.0194535 0.0263147
40 1 12.6833 13.5914 5.36675 -2.09923e-05 -0.00315645 0.00163473
41 2 3.69873 4.70497 4.24514 0.00200642 -0.00943974 -0.00580709
42 2 11.857 13.3783 4.90492 0.00617923 0.0153936 -0.0162884
43 1 4.20219 5.52062 3.94013 0.000926486 -0.00262134 -0.00804602
44 2 12.5669 7.96816 4.44333 0.0169627 0.0261245 -0.0309405
45 2 7.66006 13.1771 4.13515 0.0197484 0.0112766 -0.0129497
46 1 9.90298 13.0175 8.20932 -0.00188728 -0.00287401 -0.00262216
47 2 8.59655 12.505 7.21426 -0.0172452 0.00428829 -0.0121676
48 2 10.6607 12.4785 7.97971 0.00528499 0.00834818 0.0145134
49 1 9.9738 6.80333 8.50957 0.00652769 0.00263794 0.00424768
50 2 9.33185 6.06537 8.4035 0.0193202 -0.0108448 0.000606438
51 2 9.70706 7.12276 9.35929 -0.0140036 -0.00332631 -0.00203266
52 1 9.0962 9.85791 4.51137 0.000583688 -0.00603717 -2.98123e-05
53 2 9.03303 9.53591 5.42973 -0.0204715 -0.004459 0.0214853
54 2 8.93292 10.7836 4.56508 -0.0135637 0.0221076 -0.0115834
55 1 5.01481 10.7693 3.47862 -0.00377439 -0.00491742 -0.000140662
56 2 5.31388 9.77627 3.34633 -0.0169866 0.00615461 -0.0233214
57 2 4.21228 10.8308 2.95719 0.0256515 -0.00874321 -0.0114182
58 1 5.89859 10.6829 9.55104 0.00181355 -0.00495364 0.00153603
59 2 5.18292 13.2013 7.23448 -0.0240208 -5.9252e-05 0.00687592
60 2 7.18408 11.7907 10.0412 -0.0144306 0.00217613 0.0237976
61 1 8.2301 5.26868 6.46624 0.00178676 -0.00145374 -0.00456473
62 2 8.27347 4.9359 7.42801 -0.0153424 0.019806 0.0115566
63 2 7.42358 5.85342 6.46296 -0.00991035 0.000362254 0.0093346
64 1 5.49137 12.2296 7.24932 -8.53535e-05 0.00276155 0.0024832
65 2 4.42556 11.2837 6.36792 -0.000111657 -0.00787639 -0.00798714
66 2 3.52719 4.56416 6.9531 0.00092276 -0.0286875 0.00826791
67 1 11.592 10.6422 7.81879 -0.00675083 0.00242651 0.00349388
68 2 12.2217 10.6987 7.08003 0.00259555 -0.0167862 -0.00841155
69 2 11.9419 9.97627 8.44566 -0.00723115 -0.00758731 0.0260449
70 1 10.1763 12.6496 4.05398 -0.00306488 0.00358466 -0.00242971
71 2 10.3668 13.3772 3.40018 -0.0181001 -0.0032393 0.0140153
72 2 9.54357 13.0859 4.62834 0.0146547 -0.0292306 -0.0169762
73 1 9.54086 8.98719 7.01742 -0.00755595 0.0019511 0.0022498
74 2 9.9067 8.10041 7.17953 -0.00151525 -0.000931392 -0.00536562
75 2 10.2627 9.6803 7.23932 0.0457479 -0.0110638 -0.0131732
76 1 12.4271 4.76208 9.8858 -0.00475191 0.0030099 0.00407255
77 2 11.6839 5.18807 9.48799 0.0049041 0.0128931 -0.0027657
78 2 3.9688 5.69207 10.7454 -0.0121485 0.00638174 -0.0176651
79 1 12.2584 8.9173 9.75724 0.00397875 0.00428646 -0.000803928
80 2 12.4116 9.37122 10.6223 -0.00569632 -0.00708468 -0.0184714
81 2 5.46903 11.1027 8.78207 -0.00662854 0.00558242 0.0116647
82 1 7.50849 5.67781 11.4703 0.00274196 -0.000635547 0.00378066
83 2 7.54385 4.79307 11.803 -0.00706492 0.0300213 0.0191248
84 2 6.64089 6.08362 11.6426 -0.00504851 0.00112986 0.00797605
85 1 10.178 4.0349 11.5848 -0.00153964 0.00604683 -0.00516532
86 2 9.64005 4.76925 11.7291 -0.0351743 -0.0176487 0.0127186
87 2 12.0384 4.23244 10.5652 0.00919811 0.0213739 -0.030139
88 1 8.02734 12.4097 6.41472 0.00596782 -0.00386755 -0.00139509
89 2 6.49273 12.219 6.96568 -0.00333473 -0.00779278 -0.0314949
90 2 7.91568 13.328 6.14243 -0.0323304 0.0100223 0.0173232
91 1 5.6175 6.74934 6.11771 -0.0015464 -0.00213245 -0.00133689
92 2 4.03441 7.85633 6.26902 -3.51497e-05 -0.0030952 0.0302937
93 2 5.3637 5.99479 6.65829 0.0123126 0.037974 0.00172595
94 1 4.27008 4.8302 7.50948 -0.00148881 -0.0030772 0.00163991
95 2 3.9196 4.95863 8.41631 -0.00512825 -0.0182002 0.0144763
96 2 5.30479 6.35404 5.21525 0.0196269 0.0158359 -0.00417568
ITEM: TIMESTEP
2
ITEM: NUMBER OF ATOMS
96
ITEM: BOX BOUNDS pp pp pp
2.9236100000000000e+00 1.2773600000000000e+01
4.0306300000000004e+00 1.3880599999999999e+01
2.1372399999999998e+00 1.1987200000000000e+01
ITEM: ATOMS id type x y z vx vy vz
1 1 7.06699 13.0399 3.42527 0.0054444 -0.00275222 -0.000458041
2 2 6.54826 12.2788 3.56015 0.0111864 0.00320775 0.01269
3 2 9.58482 13.228 11.3824 -0.0023137 -0.0244796 -0.0177067
4 1 12.4516 10.1559 2.52341 0.00406535 -0.00449046 -0.00226459
5 2 11.5619 10.6348 2.46915 0.0106176 0.00283935 0.00901593
6 2 12.3476 9.32987 3.0284 0.00606109 0.00673817 -0.00317639
7 1 12.2255 7.50314 3.63781 0.00500621 0.00500803 -0.00764679
8 2 11.2719 7.30154 3.86672 0.00394216 -0.00557695 0.0165915
9 2 7.95493 8.16504 8.50678 0.0126426 0.0118185 0.00893876
10 1 7.36756 8.12698 9.24981 -0.000860774 0.00686983 0.00371566
11 2 6.99066 7.18242 9.18689 -0.00147504 -0.0138786 0.0136252
12 2 6.33133 9.91662 9.14987 -0.00408272 -0.0042548 -0.0238228
13 1 5.98317 8.6341 2.14211 -0.000543014 0.00333853 -0.00126657
14 2 6.38162 8.90378 11.1846 0.0190788 -0.00158263 -0.00731626
15 2 5.32368 7.94665 11.6759 2.12607e-05 -0.015156 0.00886488
16 1 9.53678 8.10641 11.124 0.00236695 0.00182034 -0.000724817
17 2 9.19033 7.80247 2.15419 0.0219688 0.0256331 0.000616257
18 2 8.74527 8.022 10.5066 0.0102665 0.0119899 -0.000226464
19 1 4.66293 6.31187 11.1074 0.000682996 0.00337619 0.00353228
20 2 4.4438 6.40789 2.23617 -0.00802908 0.00389777 0.00839155
21 2 11.3716 8.46728 9.89788 0.0145396 -0.00336047 0.0320355
22 1 9.84323 10.8017 11.5761 -0.00304799 0.00204435 0.00417153
23 2 9.58506 10.937 2.64162 -0.00418563 -0.0369603 0.00278249
24 2 9.71178 9.80271 11.4245 0.0130475 -0.00647886 0.0202602
25 1 3.20436 8.29915 6.21407 -0.00110696 -0.00500704 -0.00056205
26 2 3.42806 9.24042 6.31172 -0.0013046 0.0123073 0.00634039
27 2 3.49294 6.15089 3.69482 0.0125371 0.0126414 0.00137491
28 1 9.54375 6.81826 4.24333 -0.00131895 0.00455056 0.00108197
29 2 8.95154 6.25638 4.67887 0.032144 -0.0265999 0.00953628
30 2 9.24482 7.72889 4.43043 -0.028611 0.0178487 -0.0196748
31 1 3.67787 11.1254 5.77062 -0.00345481 -0.00347764 -0.00400571
32 2 3.26283 12.6674 5.51256 -0.000706878 -2.05854e-05 0.00629527
33 2 4.24315 10.9073 4.77357 -0.0370975 0.031974 0.0149178
34 1 7.44336 4.88004 8.93409 -0.00691526 -0.00431943 -0.00126567
35 2 7.91415 13.859 9.05101 -0.00757123 -0.0100902 0.00518801
36 2 7.443 5.29721 9.83791 0.006193 0.0132408 0.00371135
37 1 8.17328 12.0064 9.8224 0.00658628 -0.00161315 -0.00225288
38 2 9.47795 12.5619 9.00379 -0.0227746 -0.0336785 0.0362527
39 2 8.68696 11.6375 10.5858 0.0270238 0.017705 0.0271671
40 1 12.6833 13.5898 5.36755 -0.000138349 -0.00311861 0.00156888
41 2 3.70025 4.70009 4.24266 0.00403131 -0.00972003 -0.00419762
42 2 11.8595 13.3861 4.89665 0.00394326 0.0154399 -0.0167005
43 1 4.20266 5.51929 3.93609 0.000938448 -0.0027281 -0.00808873
44 2 12.5753 7.98086 4.42816 0.0166319 0.0246692 -0.0296202
45 2 7.66985 13.1819 4.12955 0.019366 0.00765197 -0.00948769
46 1 9.90206 13.0161 8.20796 -0.00183001 -0.00263795 -0.00273973
47 2 8.58874 12.5065 7.20927 -0.0135392 0.0018345 -0.00718089
48 2 10.6637 12.482 7.98686 0.00644135 0.00602968 0.0141518
49 1 9.97703 6.80456 8.51168 0.0063848 0.00228604 0.00417064
50 2 9.3422 6.06054 8.40336 0.0221102 -0.00846735 -0.00121664
51 2 9.70037 7.12154 9.35865 -0.0127448 -0.00150493 -0.000532135
52 1 9.09648 9.85484 4.51129 0.00051299 -0.00615898 -0.000212371
53 2 9.02294 9.53344 5.4411 -0.0197424 -0.00500636 0.0231445
54 2 8.92625 10.7957 4.55939 -0.0128598 0.0248377 -0.011134
55 1 5.01303 10.7668 3.47863 -0.0033599 -0.0051712 0.000162699
56 2 5.30529 9.78052 3.3345 -0.0169436 0.0103855 -0.0237448
57 2 4.22377 10.8266 2.95026 0.0197523 -0.00781243 -0.016506
58 1 5.89948 10.6804 9.55181 0.00178295 -0.00490131 0.00153576
59 2 5.17125 13.2001 7.23815 -0.0223785 -0.00438827 0.00774123
60 2 7.17782 11.7916 10.0521 -0.00978137 0.00113901 0.0196612
61 1 8.23092 5.26798 6.464 0.00146165 -0.00135352 -0.00440516
62 2 8.26586 4.94628 7.43243 -0.0148025 0.0215041 0.00601802
63 2 7.41937 5.85297 6.46746 -0.00667106 -0.00223013 0.00832874
64 1 5.49137 12.2311 7.25058 8.7928e-05 0.00303012 0.00255683
65 2 4.42606 11.2801 6.36478 0.00229738 -0.006243 -0.00435988
66 2 3.52714 4.54977 6.95708 -0.000999938 -0.0287793 0.00772093
67 1 11.5885 10.6434 7.82048 -0.00699203 0.00261764 0.00328504
68 2 12.2232 10.6903 7.07555 0.00299391 -0.0166373 -0.00886094
69 2 11.9388 9.9718 8.4595 -0.00563705 -0.0096582 0.0287293
70 1 10.1747 12.6515 4.05279 -0.00301617 0.00379595 -0.0023578
71 2 10.358 13.3749 3.40682 -0.0167645 -0.00562256 0.0119183
72 2 9.55076 13.0707 4.62049 0.0130616 -0.031077 -0.0134023
73 1 9.53709 8.98823 7.01856 -0.00743952 0.00223683 0.00230582
74 2 9.90617 8.09985 7.17735 -0.000862893 -0.00124954 -0.00342712
75 2 10.2851 9.67381 7.23273 0.0434632 -0.0150488 -0.0132979
76 1 12.4248 4.7636 9.88782 -0.00432212 0.00311553 0.00392146
77 2 11.6857 5.19481 9.48643 0.00214787 0.0141452 -0.00350418
78 2 3.96331 5.69601 10.7369 -0.00945821 0.00972252 -0.015942
79 1 12.2603 8.91941 9.7569 0.00366712 0.00410453 -0.000603086
80 2 12.4085 9.36745 10.6125 -0.00611509 -0.00741691 -0.0198718
81 2 5.46583 11.1059 8.78802 -0.00616049 0.00718847 0.0121997
82 1 7.50993 5.67757 11.4722 0.00300374 -0.000260757 0.00367788
83 2 7.53919 4.80758 11.8134 -0.0114637 0.0271058 0.0229064
84 2 6.63823 6.08325 11.6467 -0.00537584 -0.00255116 0.00803831
85 1 10.1775 4.03799 11.5822 -0.00080131 0.00629876 -0.00510523
86 2 9.62114 4.76237 11.7357 -0.0401188 -0.0105159 0.013624
87 2 12.0423 4.24288 10.5506 0.00545885 0.0193482 -0.0272312
88 1 8.0303 12.4077 6.41396 0.00580511 -0.00398037 -0.00166902
89 2 6.49041 12.2153 6.95005 -0.00622024 -0.0068383 -0.0308945
90 2 7.89917 13.3344 6.15035 -0.0335967 0.0150392 0.0144782
91 1 5.61669 6.74819 6.11686 -0.00161989 -0.00238642 -0.00207125
92 2 4.03565 7.85373 6.28429 0.00469685 -0.0070644 0.0307619
93 2 5.36994 6.01391 6.66079 0.012178 0.0373789 0.00864121
94 1 4.26937 4.82864 7.51034 -0.00135557 -0.00313798 0.00182093
95 2 3.91672 4.94926 8.42323 -0.00620507 -0.0193435 0.012772
96 2 5.31526 6.36356 5.21409 0.0219191 0.0216793 -0.000622069
ITEM: TIMESTEP
3
ITEM: NUMBER OF ATOMS
96
ITEM: BOX BOUNDS pp pp pp
2.9236100000000000e+00 1.2773600000000000e+01
4.0306300000000004e+00 1.3880599999999999e+01
2.1372399999999998e+00 1.1987200000000000e+01
ITEM: ATOMS id type x y z vx vy vz
1 1 7.06974 13.0387 3.42492 0.00553881 -0.00229521 -0.00091882
2 2 6.55362 12.2796 3.5673 0.0101573 -0.000360834 0.0159595
3 2 9.58221 13.2136 11.3728 -0.0069215 -0.0316882 -0.0201554
4 1 12.4535 10.1537 2.52225 0.00387892 -0.00427607 -0.00238889
5 2 11.5683 10.6351 2.47383 0.0145241 -0.00160577 0.00969816
6 2 12.35 9.33343 3.02658 0.00364022 0.00717529 -0.00389678
7 1 12.228 7.50568 3.634 0.00488166 0.00513262 -0.00758556
8 2 11.2746 7.29862 3.87481 0.00685699 -0.00597746 0.0157339
9 2 7.96153 8.1709 8.51095 0.0135242 0.0115415 0.00793599
10 1 7.36706 8.1303 9.25169 -0.0011194 0.00638932 0.0037874
11 2 6.99095 7.17754 9.19372 0.00285303 -0.0051839 0.0136368
12 2 6.32965 9.91413 9.13834 -0.00275995 -0.00546479 -0.0221228
13 1 5.98283 8.63569 2.14152 -0.000823517 0.00301719 -0.00114559
14 2 6.39162 8.90355 11.1801 0.020528 0.000340748 -0.0102777
15 2 5.32446 7.93997 11.6807 0.0033436 -0.0112804 0.010443
16 1 9.53789 8.10732 11.1237 0.00213646 0.00183663 -0.000679019
17 2 9.20174 7.81537 2.15347 0.0233068 0.0257209 -0.0031055
18 2 8.75077 8.02835 10.5075 0.0113735 0.0133069 0.00368185
19 1 4.66321 6.31352 11.1092 0.000435686 0.0032406 0.00380143
20 2 4.43994 6.40908 2.23861 -0.00742122 0.000791082 0.00121623
21 2 11.3801 8.46622 9.91373 0.0193974 -0.00113231 0.0310384
22 1 9.84171 10.8027 11.5782 -0.00303842 0.00184654 0.00411589
23 2 9.58289 10.9187 2.64363 -0.00451761 -0.0357024 0.00552132
24 2 9.71834 9.79975 11.4345 0.0132406 -0.0052541 0.0192121
25 1 3.20375 8.29669 6.21377 -0.0012593 -0.00476987 -0.00065457
26 2 3.42713 9.24663 6.31469 -0.00249912 0.0116791 0.00546181
27 2 3.49873 6.15791 3.69572 0.0105212 0.0151902 0.00236177
28 1 9.54315 6.82062 4.24379 -0.00107991 0.0049249 0.000763778
29 2 8.96668 6.2425 4.68481 0.0285035 -0.0285671 0.0141874
30 2 9.23045 7.7373 4.42072 -0.0287576 0.0151163 -0.0191235
31 1 3.6762 11.1235 5.76839 -0.00325396 -0.00389835 -0.00484532
32 2 3.26278 12.6672 5.51586 0.00024316 -0.000843796 0.00678267
33 2 4.22304 10.9237 4.78339 -0.0429692 0.0333259 0.023626
34 1 7.43994 4.87782 8.93343 -0.00674813 -0.00454845 -0.00131725
35 2 7.90979 13.8545 9.05369 -0.00992781 -0.00753059 0.00550753
36 2 7.44602 5.30401 9.84015 0.00590932 0.0136313 0.0048204
37 1 8.17639 12.0056 9.82137 0.00585104 -0.00169147 -0.00179144
38 2 9.46739 12.5453 9.0215 -0.0186536 -0.0321106 0.0331692
39 2 8.70072 11.6459 10.5994 0.0273938 0.0163702 0.0267291
40 1 12.6832 13.5883 5.36832 -0.000249567 -0.00304488 0.00149608
41 2 3.70276 4.69525 4.24094 0.00596579 -0.00926959 -0.00281077
42 2 11.8609 13.3938 4.88822 0.00203988 0.0151205 -0.0168936
43 1 4.20313 5.51789 3.93204 0.000963894 -0.00285665 -0.00812293
44 2 12.5835 7.99283 4.41371 0.0161992 0.0231743 -0.0280494
45 2 7.67942 13.1848 4.12566 0.0188142 0.00397057 -0.00621712
46 1 9.90115 13.0149 8.20658 -0.00184248 -0.00250457 -0.00268723
47 2 8.58301 12.5068 7.20708 -0.00913275 -0.000595199 -0.00128108
48 2 10.6672 12.4845 7.99386 0.00727492 0.00381135 0.0138665
49 1 9.98018 6.80561 8.51374 0.00624387 0.00193456 0.00409186
50 2 9.35396 6.0569 8.40229 0.0248515 -0.00614171 -0.00305728
51 2 9.69431 7.12125 9.35876 -0.0114639 0.000312657 0.000917866
52 1 9.09672 9.85175 4.51115 0.00040178 -0.00616077 -0.000274543
53 2 9.01328 9.53091 5.45287 -0.0187193 -0.00471504 0.0230944
54 2 8.92006 10.8084 4.55395 -0.0116396 0.0246026 -0.0105509
55 1 5.01145 10.7641 3.47878 -0.00292288 -0.00540139 0.000440916
56 2 5.29694 9.78666 3.32258 -0.0160358 0.0136401 -0.0236735
57 2 4.23203 10.823 2.94068 0.0130496 -0.0060542 -0.0217963
58 1 5.90037 10.678 9.55257 0.00177245 -0.00486355 0.00151477
59 2 5.16054 13.1969 7.24222 -0.0202615 -0.00852859 0.00848063
60 2 7.1743 11.7919 10.0608 -0.00373127 8.8986e-05 0.0151879
61 1 8.23156 5.26733 6.46184 0.00108017 -0.00123278 -0.00420838
62 2 8.25866 4.9574 7.43403 -0.0136672 0.0227171 0.000543948
63 2 7.41691 5.85119 6.47129 -0.00307599 -0.00484583 0.00662405
64 1 5.49146 12.2326 7.25188 0.000253635 0.00325306 0.00261302
65 2 4.42785 11.2774 6.36356 0.00496594 -0.00441282 -0.000426004
66 2 3.52619 4.53538 6.96082 -0.00259584 -0.0286784 0.00734537
67 1 11.585 10.6448 7.82207 -0.00715749 0.00272315 0.00306952
68 2 12.2247 10.682 7.07117 0.00245512 -0.0166345 -0.0079937
69 2 11.9363 9.96661 8.47439 -0.00460746 -0.0104419 0.0301238
70 1 10.1733 12.6534 4.05162 -0.00286533 0.0038426 -0.0023249
71 2 10.35 13.3716 3.4121 -0.0150009 -0.00668288 0.00866
72 2 9.55663 13.0548 4.61494 0.00941791 -0.031662 -0.00787034
73 1 9.53342 8.98942 7.01973 -0.00720596 0.00254582 0.00237644
74 2 9.90584 8.09916 7.1761 -0.000796437 -0.00145448 -0.00171374
75 2 10.3061 9.66525 7.22602 0.03997 -0.0191379 -0.0135742
76 1 12.4228 4.7652 9.88973 -0.0037946 0.00334093 0.00361542
77 2 11.6861 5.20222 9.48448 -0.000679486 0.0155021 -0.00430512
78 2 3.95934 5.70179 10.7295 -0.00622503 0.0135456 -0.0136591
79 1 12.262 8.92141 9.75664 0.0033371 0.00386276 -0.000481716
80 2 12.4054 9.3638 10.6024 -0.00569568 -0.00652261 -0.0196605
81 2 5.46287 11.1099 8.79427 -0.00563892 0.00881237 0.0128005
82 1 7.51149 5.67755 11.474 0.00321774 0.000202815 0.00354368
83 2 7.53239 4.82018 11.8259 -0.0155448 0.0225807 0.0271461
84 2 6.63552 6.08107 11.6507 -0.00526874 -0.00605519 0.00790439
85 1 10.1772 4.04119 11.5797 -0.000260966 0.00651017 -0.00507631
86 2 9.59993 4.75873 11.7427 -0.0440547 -0.00516337 0.014158
87 2 12.0439 4.25179 10.538 0.000297034 0.0153445 -0.0218035
88 1 8.03315 12.4057 6.41305 0.00557021 -0.00400858 -0.00202316
89 2 6.48651 12.2122 6.93479 -0.00949127 -0.00550708 -0.0300115
90 2 7.88208 13.3431 6.1569 -0.034526 0.0188776 0.0119641
91 1 5.61588 6.74696 6.11564 -0.00159872 -0.00242212 -0.00280627
92 2 4.03911 7.84926 6.29978 0.00856882 -0.0104619 0.0311297
93 2 5.37588 6.03216 6.66693 0.0111167 0.0346113 0.0161007
94 1 4.26872 4.82706 7.5113 -0.00126644 -0.00320739 0.00203817
95 2 3.9134 4.93929 8.42908 -0.00689587 -0.0205614 0.0102856
96 2 5.32671 6.37572 5.21463 0.0235325 0.0262533 0.00245041
ITEM: TIMESTEP
4
ITEM: NUMBER OF ATOMS
96
ITEM: BOX BOUNDS pp pp pp
2.9236100000000000e+00 1.2773600000000000e+01
4.0306300000000004e+00 1.3880599999999999e+01
2.1372399999999998e+00 1.1987200000000000e+01
ITEM: ATOMS id type x y z vx vy vz
1 1 7.07253 13.0376 3.42435 0.00565166 -0.00183261 -0.00135498
2 2 6.55842 12.2785 3.57611 0.00904312 -0.00403559 0.0192184
3 2 9.5779 13.1963 11.3622 -0.00896962 -0.0357889 -0.0216426
4 1 12.4554 10.1517 2.52102 0.00372365 -0.00402566 -0.00252345
5 2 11.5765 10.6332 2.47884 0.0179841 -0.00570445 0.0103301
6 2 12.3512 9.33705 3.0245 0.00119106 0.00691436 -0.00418231
7 1 12.2304 7.50827 3.63022 0.00473427 0.00523479 -0.00752758
8 2 11.2788 7.29556 3.88246 0.010136 -0.00619325 0.0148392
9 2 7.96846 8.17658 8.51471 0.0139796 0.0110684 0.00733572
10 1 7.36644 8.13337 9.2536 -0.00137136 0.00588562 0.00384028
11 2 6.99351 7.17723 9.20053 0.00746829 0.00409021 0.0134859
12 2 6.32857 9.91116 9.12775 -0.0016938 -0.00613959 -0.0200704
13 1 5.98235 8.63712 2.14097 -0.00107114 0.00270273 -0.00109441
14 2 6.40215 8.90412 11.1743 0.0211229 0.00158388 -0.0121455
15 2 5.32702 7.93537 11.6863 0.00704589 -0.00703692 0.0117881
16 1 9.53892 8.10824 11.1233 0.00200589 0.00188776 -0.000668133
17 2 9.21364 7.82819 2.15109 0.0239048 0.0252782 -0.00585872
18 2 8.75664 8.03531 10.5103 0.0116468 0.014449 0.00732622
19 1 4.66336 6.31511 11.1112 0.000176969 0.00310169 0.00405046
20 2 4.43638 6.40868 2.23739 -0.00686713 -0.00238681 -0.00594477
21 2 11.391 8.46615 9.92892 0.0233966 0.000547652 0.0294932
22 1 9.84019 10.8035 11.5802 -0.00304666 0.00160962 0.00407206
23 2 9.58054 10.9013 2.64715 -0.00490932 -0.0336202 0.00868613
24 2 9.72502 9.79745 11.4437 0.0135364 -0.00387742 0.0172988
25 1 3.2031 8.29438 6.21342 -0.00131889 -0.00448437 -0.000731398
26 2 3.42556 9.2521 6.31718 -0.00386994 0.00939822 0.0044163
27 2 3.50346 6.16608 3.69718 0.0084077 0.0171425 0.00361617
28 1 9.54267 6.82318 4.24409 -0.000871308 0.00532681 0.000461423
29 2 8.98005 6.22782 4.69306 0.0252603 -0.0296064 0.0185726
30 2 9.21606 7.744 4.4113 -0.0286895 0.0111179 -0.018499
31 1 3.67462 11.1215 5.76577 -0.00310449 -0.00429761 -0.00556013
32 2 3.26307 12.6666 5.51934 0.000650325 -0.00128344 0.00700995
33 2 4.20018 10.9406 4.79719 -0.0479628 0.034027 0.0305869
34 1 7.43661 4.87549 8.93277 -0.00657815 -0.00475737 -0.00130013
35 2 7.90422 13.8515 9.05652 -0.0123834 -0.00462329 0.00578793
36 2 7.44891 5.31085 9.84273 0.00567716 0.0134237 0.00508864
37 1 8.17913 12.0047 9.82061 0.00511681 -0.00181994 -0.00121933
38 2 9.4593 12.5298 9.03696 -0.0130771 -0.0290718 0.0274808
39 2 8.71436 11.6538 10.6125 0.0265441 0.0153461 0.0250675
40 1 12.683 13.5868 5.36905 -0.0003598 -0.00294295 0.00141369
41 2 3.70621 4.69082 4.23985 0.00776908 -0.0080979 -0.0016428
42 2 11.8615 13.4012 4.87976 0.000609912 0.0144435 -0.0167841
43 1 4.20362 5.51643 3.92797 0.00099469 -0.00299462 -0.00815172
44 2 12.5915 8.00404 4.40011 0.0156717 0.0216487 -0.0262454
45 2 7.68866 13.1858 4.12333 0.0179903 0.000257184 -0.00330443
46 1 9.90022 13.0136 8.20527 -0.0019068 -0.00246933 -0.00249461
47 2 8.57961 12.5059 7.20799 -0.00439301 -0.0028958 0.0049525
48 2 10.671 12.4859 8.00073 0.00771387 0.00177215 0.0136278
49 1 9.98327 6.80649 8.51577 0.0061179 0.00160029 0.0040195
50 2 9.36705 6.05439 8.4003 0.0273495 -0.00405435 -0.00488149
51 2 9.6889 7.12186 9.35957 -0.010165 0.00202189 0.0021776
52 1 9.09689 9.84868 4.51102 0.000248813 -0.00604988 -0.000220343
53 2 9.00422 9.52873 5.46419 -0.0173622 -0.00364361 0.0213645
54 2 8.91461 10.8203 4.54884 -0.00992195 0.0215775 -0.00981646
55 1 5.0101 10.7614 3.47907 -0.00250934 -0.00560079 0.000672572
56 2 5.28926 9.79416 3.31083 -0.0142678 0.0158677 -0.0231555
57 2 4.23682 10.8205 2.92847 0.00621107 -0.00355928 -0.0267573
58 1 5.90126 10.6756 9.55332 0.00178099 -0.0048457 0.00147051
59 2 5.15099 13.1916 7.24663 -0.0178495 -0.0121415 0.00907382
60 2 7.17409 11.7917 10.0673 0.00320426 -0.00101907 0.0105308
61 1 8.232 5.26674 6.45979 0.000663329 -0.00110147 -0.00400321
62 2 8.25219 4.96899 7.43297 -0.0119039 0.0233057 -0.004433
63 2 7.41629 5.84813 6.47409 0.000529206 -0.00725209 0.00422735
64 1 5.49163 12.2343 7.2532 0.000409182 0.00341221 0.00265701
65 2 4.43102 11.2757 6.36436 0.00768532 -0.00245803 0.00360307
66 2 3.52455 4.52109 6.96442 -0.0037419 -0.0283405 0.00715987
67 1 11.5814 10.6461 7.82355 -0.00724531 0.00273772 0.00285489
68 2 12.2257 10.6737 7.06755 0.00098252 -0.0167481 -0.00581541
69 2 11.9342 9.96136 8.48963 -0.0041863 -0.00986495 0.0301323
70 1 10.1719 12.6553 4.05047 -0.00262055 0.0037356 -0.00232267
71 2 10.343 13.3682 3.41548 -0.0129645 -0.00642826 0.00434324
72 2 9.56018 13.039 4.61262 0.00400788 -0.031121 -0.000692042
73 1 9.52989 8.99078 7.02094 -0.00686509 0.00286019 0.00245621
74 2 9.90538 8.09839 7.17564 -0.00136632 -0.00157366 -0.000230727
75 2 10.3251 9.65467 7.21915 0.0354396 -0.0230235 -0.0139147
76 1 12.4211 4.76694 9.89144 -0.00321041 0.00366939 0.00318033
77 2 11.685 5.21032 9.48213 -0.00328953 0.0168218 -0.00504446
78 2 3.95709 5.70956 10.7233 -0.0027612 0.0175302 -0.011075
79 1 12.2636 8.92327 9.75641 0.0030115 0.00356834 -0.000446592
80 2 12.4028 9.36092 10.5929 -0.00444176 -0.00436977 -0.0178271