ITEM: TIMESTEP
0
ITEM: NUMBER OF ATOMS
96
ITEM: BOX BOUNDS pp pp pp
2.9236100000000000e+00 1.2773600000000000e+01
4.0306300000000004e+00 1.3880599999999999e+01
2.1372399999999998e+00 1.1987200000000000e+01
ITEM: ATOMS id type x y z vx vy vz
1 1 7.05896 13.045 3.42492 0.00531829 -0.00386924 0.000885544
2 2 6.53017 12.2677 3.548 0.0120771 0.010104 0.00401476
3 2 9.57221 13.2422 11.4015 0.0203303 0.00564219 -0.00767399
4 1 12.445 10.163 2.52656 0.00457658 -0.00484538 -0.00197115
5 2 11.5547 10.6207 2.45714 -1.83333e-05 0.0153371 0.00711176
6 2 12.3334 9.32248 3.03046 0.0124695 0.00244496 0.000846632
7 1 12.2178 7.49598 3.64943 0.00511185 0.00450307 -0.00785258
8 2 11.2705 7.30827 3.84013 -0.000552009 -0.00292175 0.0187116
9 2 7.93905 8.14734 8.49018 0.00810126 0.0113972 0.0134658
10 1 7.36832 8.11582 9.24444 -0.000219953 0.00778253 0.00344263
11 2 7.00061 7.21846 9.16685 -0.0100573 -0.0303553 0.0129838
12 2 6.34087 9.91908 9.18834 -0.00864979 0.00132683 -0.0268885
13 1 5.98337 8.62844 2.14446 0.00021826 0.00412644 -0.00191957
14 2 6.35825 8.91219 11.1866 0.0114348 -0.0102441 0.00503307
15 2 5.32895 7.97598 11.6664 -0.00536753 -0.0222952 0.00394138
16 1 9.53247 8.10361 11.1253 0.00346773 0.00194968 -0.00100584
17 2 9.16243 7.76558 2.14323 0.0142751 0.0229799 0.0141414
18 2 8.73426 8.00746 10.5157 0.0037755 0.00718831 -0.01142
19 1 4.66147 6.30655 11.1026 0.00113642 0.00366286 0.00285205
20 2 4.45687 6.39578 2.21029 -0.00914418 0.0115421 0.0233474
21 2 11.3619 8.47829 9.84955 -0.00148201 -0.0113902 0.0312303
22 1 9.84786 10.7983 11.5698 -0.00313415 0.00233957 0.00428252
23 2 9.591 10.9925 2.64132 -0.00404817 -0.0354002 -0.000725087
24 2 9.69227 9.81475 11.3945 0.0131801 -0.00932625 0.0182943
25 1 3.20548 8.30696 6.21467 -0.000360207 -0.00524176 -0.000229228
26 2 3.42812 9.22569 6.30079 0.000701041 0.00476664 0.00794587
27 2 3.4708 6.13884 3.69405 0.016028 0.0032214 -8.75383e-05
28 1 9.54625 6.81205 4.24102 -0.0019351 0.00390312 0.00193973
29 2 8.89556 6.29053 4.67448 0.0412508 -0.0189921 -0.00263706
30 2 9.28688 7.70047 4.46111 -0.027278 0.0173966 -0.0212477
31 1 3.68366 11.1296 5.7745 -0.00434145 -0.00213368 -0.00109443
32 2 3.26735 12.6651 5.50485 -0.00578863 0.00300509 0.00376318
33 2 4.28386 10.8643 4.77393 -0.016661 0.0242155 -0.0160686
34 1 7.45407 4.88601 8.93569 -0.00733773 -0.00367457 -0.000792836
35 2 7.92098 13.878 9.04403 -0.00219713 -0.013928 0.00408822
36 2 7.4328 5.27989 9.83715 0.00760627 0.00908864 -0.00369477
37 1 8.16188 12.0088 9.82644 0.0084535 -0.0017657 -0.00292209
38 2 9.51583 12.6107 8.95226 -0.0243234 -0.0282844 0.0263884
39 2 8.65114 11.6065 10.5481 0.0187198 0.0243687 0.0210478
40 1 12.6832 13.5946 5.36506 0.000252769 -0.0030931 0.00175675
41 2 3.6988 4.71346 4.25276 -0.00215441 -0.00696839 -0.00959316
42 2 11.8484 13.3634 4.92068 0.0108713 0.014241 -0.015217
43 1 4.20126 5.52317 3.94812 0.000976995 -0.00251392 -0.00792415
44 2 12.5497 7.94063 4.47533 0.0173313 0.0288773 -0.0328015
45 2 7.63998 13.1623 4.15155 0.0204789 0.0182438 -0.019645
46 1 9.90501 13.0207 8.21163 -0.00225979 -0.00363182 -0.00180317
47 2 8.6165 12.4983 7.23002 -0.021448 0.00877689 -0.0176232
48 2 10.6568 12.4678 7.96476 0.0025535 0.0128535 0.0154108
49 1 9.96714 6.80035 8.50526 0.00676897 0.00327142 0.00436603
50 2 9.31517 6.07846 8.40113 0.0143957 -0.0150184 0.00405674
51 2 9.72229 7.1278 9.36272 -0.0164238 -0.00655354 -0.00458719
52 1 9.09559 9.86371 4.5111 0.000629893 -0.00546787 0.000656678
53 2 9.054 9.539 5.41149 -0.0213183 -0.00098707 0.0136699
54 2 8.94671 10.7671 4.57701 -0.0136378 0.00853792 -0.0121988
55 1 5.01894 10.774 3.47907 -0.0043733 -0.00436621 -0.000750292
56 2 5.33009 9.77523 3.36871 -0.014686 -0.00481641 -0.020948
57 2 4.18213 10.8396 2.96417 0.0328012 -0.00804754 -0.00357278
58 1 5.89672 10.6879 9.54952 0.00193154 -0.00506904 0.00149051
59 2 5.20794 13.1972 7.22857 -0.0252294 0.00773665 0.0048684
60 2 7.20131 11.7875 10.0137 -0.0178584 0.00445478 0.0305713
61 1 8.22806 5.27021 6.4709 0.00219824 -0.0015632 -0.0046596
62 2 8.28882 4.91809 7.41132 -0.0149194 0.0157102 0.0209867
63 2 7.43605 5.85072 6.45329 -0.0140588 0.00456777 0.00937738
64 1 5.49164 12.2271 7.24694 -0.000467226 0.00215329 0.00225205
65 2 4.42764 11.2929 6.37907 -0.00348391 -0.0103054 -0.0137367
66 2 3.52418 4.59262 6.94416 0.00508337 -0.0281438 0.00965095
67 1 11.5984 10.64 7.8151 -0.00608476 0.00184525 0.00386672
68 2 12.2203 10.7157 7.08681 -0.000549593 -0.0175179 -0.00422326
69 2 11.9512 9.98069 8.42337 -0.0117135 -0.000472153 0.0177805
70 1 10.1793 12.6464 4.05653 -0.0028822 0.00271656 -0.0026981
71 2 10.3857 13.3769 3.38522 -0.0191248 0.00484318 0.0148848
72 2 9.5294 13.112 4.64686 0.0117626 -0.021957 -0.0181355
73 1 9.54841 8.98548 7.01521 -0.0074219 0.00152056 0.00220719
74 2 9.90938 8.10091 7.18704 -0.0042571 2.69626e-05 -0.00983857
75 2 10.216 9.6878 7.25262 0.0461991 -0.00464462 -0.0137745
76 1 12.4322 4.75906 9.88174 -0.00521877 0.00315176 0.00390239
77 2 11.6766 5.17623 9.49015 0.00917275 0.0110627 -0.00173699
78 2 3.98283 5.68825 10.764 -0.0148956 0.00223529 -0.0186386
79 1 12.2541 8.9129 9.75831 0.00445637 0.00446095 -0.00137557
80 2 12.4161 9.37687 10.6379 -0.00261578 -0.00332754 -0.011578
81 2 5.47613 11.0986 8.77089 -0.00760331 0.00277691 0.0107042
82 1 7.50606 5.67871 11.4665 0.00208041 -0.00102657 0.0038673
83 2 7.54628 4.76202 11.7871 0.00235661 0.0301221 0.0132866
84 2 6.64514 6.07877 11.6349 -0.00293603 0.00849366 0.00738883
85 1 10.1804 13.8791 11.5901 -0.00321475 0.00548233 -0.00535394
86 2 9.66991 4.79452 11.7174 -0.0248204 -0.0318232 0.0110352
87 2 12.0271 4.21113 10.5956 0.0119548 0.0192725 -0.0279335
88 1 8.02129 12.4134 6.41594 0.00604883 -0.00352607 -0.0011419
89 2 6.49385 12.2273 6.99742 0.00017646 -0.00833496 -0.0315872
90 2 7.94662 13.3236 6.12223 -0.0296103 -0.00122426 0.0227891
91 1 5.61888 6.75101 6.11836 -0.00113268 -0.00101779 -2.13315e-05
92 2 4.03954 7.85522 6.23923 -0.0100178 0.00516213 0.0292736
93 2 5.3522 5.95857 6.66263 0.00982707 0.0321417 -0.00938809
94 1 4.27173 4.83322 7.50797 -0.00184763 -0.00297304 0.00143053
95 2 3.92326 4.97582 8.40103 -0.00182565 -0.0163483 0.0151452
96 2 5.28797 6.345 5.22316 0.0136987 0.00164781 -0.0115119
ITEM: TIMESTEP
1
ITEM: NUMBER OF ATOMS
96
ITEM: BOX BOUNDS pp pp pp
2.9236100000000000e+00 1.2773600000000000e+01
4.0306300000000004e+00 1.3880599999999999e+01
2.1372399999999998e+00 1.1987200000000000e+01
ITEM: ATOMS id type x y z vx vy vz
1 1 7.06162 13.0431 3.42526 0.00533296 -0.00355761 0.000463512
2 2 6.53632 12.2725 3.55061 0.0122667 0.00869021 0.00661159
3 2 9.58043 13.2428 11.3969 0.0123113 -0.00415489 -0.011
4 1 12.4473 10.1606 2.52556 0.00443705 -0.00477908 -0.00205429
5 2 11.5553 10.6275 2.46082 0.00298612 0.0115933 0.00767653
6 2 12.3392 9.32417 3.03048 0.01054 0.00421332 -0.000704489
7 1 12.2204 7.49828 3.64552 0.00513199 0.00469139 -0.00777937
8 2 11.2703 7.30649 3.84934 8.05633e-05 -0.00406941 0.0180941
9 2 7.94355 8.15315 8.4965 0.0098342 0.0117448 0.0118322
10 1 7.36817 8.11969 9.24618 -0.000392432 0.00760403 0.00353615
11 2 6.9959 7.20378 9.17341 -0.0081858 -0.0270402 0.0132476
12 2 6.33691 9.91924 9.17504 -0.00713902 -0.000696707 -0.0261801
13 1 5.98343 8.63046 2.14356 5.80241e-06 0.00391459 -0.00167354
14 2 6.36469 8.90788 11.1881 0.0142954 -0.00704949 0.000751035
15 2 5.32635 7.96506 11.6687 -0.0045191 -0.020846 0.00548963
16 1 9.5341 8.10457 11.1248 0.00305564 0.0018818 -0.000895708
17 2 9.17038 7.77739 2.14921 0.0173443 0.0241545 0.00961913
18 2 8.73678 8.01149 10.5108 0.00624686 0.00890283 -0.00800381
19 1 4.66203 6.30837 11.1041 0.00105184 0.00359661 0.0030349
20 2 4.45234 6.40108 2.22135 -0.00890493 0.00939883 0.0199325
21 2 11.3624 8.47324 9.86547 0.0036774 -0.00871172 0.0321442
22 1 9.8463 10.7995 11.5719 -0.00310145 0.00229624 0.0042633
23 2 9.58903 10.9743 2.6409 -0.00392088 -0.0368038 -0.000471223
24 2 9.69881 9.81027 11.4041 0.0130183 -0.00851704 0.0197539
25 1 3.20524 8.30432 6.21453 -0.000623086 -0.00525519 -0.000346022
26 2 3.42841 9.22917 6.30468 0.000320121 0.00863483 0.0075627
27 2 3.47873 6.14124 3.6941 0.0153968 0.00642976 0.000296702
28 1 9.54531 6.81402 4.24193 -0.00177796 0.00401635 0.00168906
29 2 8.91576 6.28047 4.67391 0.0389711 -0.021429 0.00079733
30 2 9.2731 7.70973 4.45062 -0.0278106 0.0189826 -0.0207095
31 1 3.68158 11.1284 5.7737 -0.0040039 -0.00259247 -0.00209924
32 2 3.26495 12.6664 5.50697 -0.00386588 0.00211717 0.0047146
33 2 4.27375 10.8773 4.76853 -0.0237231 0.0273757 -0.00546522
34 1 7.45043 4.88413 8.93524 -0.00721526 -0.00386716 -0.000989963
35 2 7.91958 13.8711 9.04617 -0.00361889 -0.0134104 0.00446841
36 2 7.43644 5.28492 9.83609 0.00702732 0.0108721 -0.00070927
37 1 8.16599 12.008 9.82499 0.00792227 -0.00164587 -0.00281242
38 2 9.50311 12.5955 8.96751 -0.0256637 -0.0317694 0.0329864
39 2 8.66157 11.618 10.5595 0.0225624 0.0216768 0.0242161
40 1 12.6833 13.593 5.36592 0.000107783 -0.00315041 0.0016965
41 2 3.69824 4.70953 4.24847 -6.86447e-05 -0.00848465 -0.0076196
42 2 11.8533 13.3707 4.91294 0.00856019 0.0149871 -0.0157585
43 1 4.20173 5.52191 3.94414 0.000936661 -0.00254717 -0.00799191
44 2 12.5583 7.95474 4.4591 0.0171917 0.02753 -0.0320018
45 2 7.6501 13.1706 4.1425 0.0200801 0.0148194 -0.0164073
46 1 9.90395 13.019 8.21058 -0.00202824 -0.00320981 -0.00231252
47 2 8.60599 12.5022 7.22144 -0.019949 0.00664496 -0.0157598
48 2 10.6584 12.4737 7.97235 0.00393193 0.0106638 0.0149466
49 1 9.9705 6.80192 8.50743 0.00666 0.00297211 0.0043152
50 2 9.32288 6.07138 8.40275 0.0166832 -0.0130869 0.00237615
51 2 9.71437 7.12487 9.36068 -0.0152341 -0.00504339 -0.00343262
52 1 9.0959 9.86088 4.51132 0.000619483 -0.00580013 0.00026602
53 2 9.04341 9.5379 5.41961 -0.0209711 -0.00308711 0.0182351
54 2 8.93981 10.7736 4.57097 -0.0137897 0.0165249 -0.0119278
55 1 5.0168 10.7717 3.47877 -0.00412369 -0.0046468 -0.000450279
56 2 5.32228 9.77437 3.35782 -0.0162053 0.00103989 -0.0223853
57 2 4.19812 10.8353 2.96168 0.0301536 -0.00881293 -0.00698482
58 1 5.89767 10.6854 9.55027 0.00186382 -0.00501265 0.00151954
59 2 5.19527 13.2002 7.23127 -0.0250191 0.00409713 0.0059095
60 2 7.19225 11.7894 10.0283 -0.0172299 0.00325817 0.0274656
61 1 8.22913 5.26943 6.46856 0.00203712 -0.00152536 -0.00465827
62 2 8.2812 4.92647 7.42087 -0.0153538 0.0178076 0.0166957
63 2 7.42928 5.85261 6.45813 -0.0124667 0.00269855 0.00966708
64 1 5.49146 12.2283 7.2481 -0.000270183 0.00246335 0.00238299
65 2 4.42617 11.288 6.37277 -0.00208325 -0.00924798 -0.0111472
66 2 3.52622 4.57846 6.94881 0.00301203 -0.0284568 0.0089363
67 1 11.5953 10.641 7.81699 -0.00644298 0.00216257 0.0036896
68 2 12.2206 10.7071 7.08396 0.00135421 -0.0170868 -0.0067799
69 2 11.946 9.97939 8.43346 -0.00930115 -0.00442312 0.0222875
70 1 10.1778 12.6479 4.05522 -0.00301573 0.00321681 -0.00254347
71 2 10.3761 13.3781 3.3928 -0.0189053 0.000331645 0.0149686
72 2 9.53611 13.0999 4.63747 0.0141665 -0.0261402 -0.0185185
73 1 9.54465 8.98628 7.01631 -0.00755002 0.00170674 0.00221475
74 2 9.90769 8.10078 7.18272 -0.00267834 -0.000497663 -0.00751216
75 2 10.2394 9.68487 7.2459 0.0466877 -0.00749887 -0.0132995
76 1 12.4296 4.76059 9.88375 -0.00505576 0.00302563 0.00406251
77 2 11.6808 5.18192 9.4892 0.00731869 0.0118461 -0.00216439
78 2 3.97546 5.68963 10.7546 -0.0140273 0.00381077 -0.0186143
79 1 12.2563 8.91512 9.7577 0.00424914 0.00440527 -0.00106882
80 2 12.4142 9.37453 10.631 -0.00449567 -0.00565418 -0.0156152
81 2 5.47246 11.1003 8.77636 -0.00709382 0.00408505 0.0111733
82 1 7.50719 5.67821 11.4684 0.00243326 -0.000895229 0.00384453
83 2 7.54625 4.77756 11.7943 -0.00242796 0.0310524 0.0159087
84 2 6.64328 6.08212 11.6387 -0.00424399 0.00485324 0.00774912
85 1 10.179 4.03194 11.5874 -0.00238071 0.0057693 -0.0052516
86 2 9.65631 4.78002 11.723 -0.0298663 -0.0252743 0.0117506
87 2 12.0331 4.22151 10.5807 0.0113619 0.0213061 -0.0303344
88 1 8.02433 12.4116 6.41536 0.00605039 -0.00370401 -0.00121736
89 2 6.49374 12.2231 6.98154 -0.00112391 -0.00830879 -0.0317414
90 2 7.9315 13.3244 6.13303 -0.0309427 0.00439644 0.020199
91 1 5.61824 6.75032 6.1182 -0.00138085 -0.00166762 -0.000642707
92 2 4.03569 7.85683 6.254 -0.00512485 0.00110696 0.029787
93 2 5.35763 5.97594 6.65906 0.0115053 0.0362119 -0.00433988
94 1 4.27086 4.83172 7.5087 -0.00165691 -0.00302304 0.00150695
95 2 3.92185 4.96746 8.40875 -0.00365996 -0.0171882 0.0152788
96 2 5.29563 6.34772 5.21827 0.0168225 0.0090378 -0.00791367
ITEM: TIMESTEP
2
ITEM: NUMBER OF ATOMS
96
ITEM: BOX BOUNDS pp pp pp
2.9236100000000000e+00 1.2773600000000000e+01
4.0306300000000004e+00 1.3880599999999999e+01
2.1372399999999998e+00 1.1987200000000000e+01
ITEM: ATOMS id type x y z vx vy vz
1 1 7.06429 13.0414 3.42538 0.00537472 -0.00317994 9.13522e-06
2 2 6.54244 12.2764 3.55461 0.0119395 0.00632223 0.00953587
3 2 9.58452 13.238 11.3905 0.00439323 -0.0147937 -0.0145087
4 1 12.4494 10.1582 2.52451 0.00425995 -0.00466003 -0.00215258
5 2 11.5577 10.6323 2.46482 0.00663887 0.00733856 0.00832714
6 2 12.3439 9.32669 3.02976 0.0083816 0.00570106 -0.00208101
7 1 12.2229 7.50067 3.64165 0.00509389 0.00486059 -0.00771116
8 2 11.2706 7.3042 3.85822 0.00162233 -0.00494913 0.0173859
9 2 7.94888 8.15908 8.50201 0.0113845 0.0118866 0.0102746
10 1 7.36793 8.12342 9.24798 -0.000612339 0.00728769 0.00362978
11 2 6.99242 7.19142 9.1801 -0.00524264 -0.0213646 0.0134803
12 2 6.33373 9.91838 9.16216 -0.00557667 -0.00261736 -0.0251692
13 1 5.98338 8.63235 2.14279 -0.00025692 0.00364514 -0.00144835
14 2 6.37255 8.90514 11.1874 0.0169262 -0.0040983 -0.00351266
15 2 5.32443 7.95513 11.6719 -0.00266972 -0.0184142 0.00717074
16 1 9.53553 8.10549 11.1244 0.00268045 0.00183677 -0.000799768
17 2 9.17977 7.78973 2.15285 0.0199481 0.0250782 0.00498355
18 2 8.74051 8.01636 10.5077 0.00849108 0.0105138 -0.00419328
19 1 4.66252 6.31015 11.1056 0.000895269 0.00349822 0.00326902
20 2 4.44797 6.40518 2.23022 -0.00854136 0.00680934 0.0148173
21 2 11.3656 8.46958 9.88169 0.00916575 -0.00595705 0.0324158
22 1 9.84476 10.8006 11.5741 -0.00307071 0.00219665 0.00422398
23 2 9.58708 10.9557 2.64085 -0.0039738 -0.0373349 0.00072787
24 2 9.70529 9.80623 11.4143 0.0129707 -0.00756799 0.0204319
25 1 3.20486 8.3017 6.21432 -0.000884254 -0.00517419 -0.000457948
26 2 3.42844 9.23432 6.30835 -0.000351769 0.0112473 0.00703775
27 2 3.4862 6.14527 3.69435 0.0142132 0.00965126 0.000715965
28 1 9.54447 6.81607 4.24271 -0.00156198 0.00423828 0.00139699
29 2 8.93453 6.2691 4.67528 0.0357845 -0.0240867 0.00495838
30 2 9.25907 7.71945 4.4404 -0.0282781 0.0191545 -0.0201923
31 1 3.67966 11.127 5.7724 -0.00370699 -0.00304176 -0.00308021
32 2 3.26348 12.6672 5.50956 -0.00212008 0.00103467 0.00558464
33 2 4.26014 10.8917 4.76846 -0.0306037 0.0299824 0.00503769
34 1 7.44685 4.88214 8.9347 -0.00707277 -0.00408717 -0.00115255
35 2 7.91736 13.8646 9.0485 -0.00543683 -0.0120958 0.00483792
36 2 7.43983 5.29076 9.83644 0.00655913 0.012293 0.0018235
37 1 8.1698 12.0072 9.82363 0.00728883 -0.00159562 -0.00259306
38 2 9.49017 12.5789 8.98525 -0.0251585 -0.0335898 0.0362776
39 2 8.6737 11.6282 10.5723 0.0253891 0.0194548 0.0263117
40 1 12.6833 13.5914 5.36676 -2.0949e-05 -0.00315657 0.00163476
41 2 3.69873 4.70498 4.24514 0.00200628 -0.00944044 -0.0058069
42 2 11.857 13.3784 4.90492 0.00618039 0.0153928 -0.0162878
43 1 4.2022 5.52062 3.94013 0.000926486 -0.00262127 -0.00804606
44 2 12.5669 7.96816 4.44333 0.0169588 0.0261226 -0.0309422
45 2 7.66006 13.1771 4.13514 0.0197498 0.0112774 -0.0129487
46 1 9.90298 13.0175 8.20932 -0.00188727 -0.0028741 -0.00262208
47 2 8.59655 12.5049 7.21426 -0.017245 0.00428845 -0.0121673
48 2 10.6607 12.4785 7.97971 0.00528395 0.0083489 0.0145136
49 1 9.9738 6.80332 8.50958 0.00652777 0.00263798 0.00424764
50 2 9.33185 6.06537 8.40351 0.0193193 -0.0108458 0.000606344
51 2 9.70706 7.12276 9.35929 -0.0140039 -0.00332611 -0.00203186
52 1 9.09621 9.85791 4.51137 0.000583634 -0.00603691 -2.97741e-05
53 2 9.03303 9.53591 5.42973 -0.0204715 -0.00445844 0.0214849
54 2 8.93292 10.7836 4.56508 -0.0135629 0.0221028 -0.0115832
55 1 5.01482 10.7694 3.47862 -0.00377445 -0.00491794 -0.000140675
56 2 5.31388 9.77627 3.34632 -0.0169865 0.00616033 -0.0233204
57 2 4.21228 10.8308 2.95719 0.0256513 -0.00874158 -0.0114177
58 1 5.89858 10.6829 9.55104 0.00181348 -0.00495354 0.001536
59 2 5.18292 13.2013 7.23448 -0.0240183 -7.13687e-05 0.00687652
60 2 7.18408 11.7908 10.0412 -0.0144315 0.00217494 0.0237991
61 1 8.2301 5.26868 6.46624 0.00178679 -0.00145375 -0.00456465
62 2 8.27347 4.9359 7.42802 -0.0153427 0.0198064 0.0115556
63 2 7.42358 5.85342 6.46296 -0.00991067 0.000362599 0.00933466
64 1 5.49137 12.2296 7.24932 -8.54311e-05 0.00276242 0.00248317
65 2 4.42556 11.2837 6.36792 -0.000111064 -0.00787596 -0.00798657
66 2 3.52719 4.56416 6.9531 0.000922117 -0.0286877 0.00826749
67 1 11.592 10.6422 7.81879 -0.00675067 0.00242638 0.00349391
68 2 12.2217 10.6986 7.08003 0.00259493 -0.0167852 -0.00841234
69 2 11.9419 9.97627 8.44566 -0.00723253 -0.00758652 0.0260453
70 1 10.1763 12.6496 4.05399 -0.00306481 0.00358443 -0.0024297
71 2 10.3668 13.3772 3.40019 -0.0181004 -0.00323763 0.014015
72 2 9.54357 13.0859 4.62834 0.0146535 -0.0292288 -0.0169755
73 1 9.54086 8.98719 7.01742 -0.00755599 0.00195111 0.00224977
74 2 9.9067 8.10041 7.17953 -0.00151506 -0.000932185 -0.00536559
75 2 10.2627 9.6803 7.23932 0.0457481 -0.0110633 -0.0131731
76 1 12.4271 4.76209 9.8858 -0.00475204 0.00300982 0.00407266
77 2 11.6839 5.18808 9.48799 0.0049051 0.0128921 -0.00276463
78 2 3.9688 5.69206 10.7454 -0.0121486 0.00638192 -0.0176646
79 1 12.2583 8.91731 9.75724 0.00397878 0.00428636 -0.000804195
80 2 12.4116 9.37122 10.6223 -0.00569798 -0.00708424 -0.0184686
81 2 5.46904 11.1027 8.78206 -0.00662868 0.00558268 0.0116651
82 1 7.50849 5.67781 11.4703 0.00274198 -0.000635592 0.00378056
83 2 7.54385 4.79307 11.803 -0.00706523 0.0300218 0.0191247
84 2 6.6409 6.08362 11.6426 -0.00504883 0.00112978 0.00797636
85 1 10.178 4.0349 11.5848 -0.00153976 0.00604659 -0.0051654
86 2 9.64004 4.76925 11.7292 -0.0351752 -0.0176509 0.0127181
87 2 12.0385 4.23244 10.5653 0.00919895 0.0213761 -0.0301416
88 1 8.02734 12.4097 6.41472 0.00596788 -0.00386793 -0.00139503
89 2 6.49273 12.219 6.96568 -0.00333703 -0.00779334 -0.0314942
90 2 7.91568 13.328 6.14243 -0.0323311 0.0100279 0.0173214
91 1 5.6175 6.74934 6.11772 -0.00154642 -0.00213244 -0.00133695
92 2 4.03442 7.85633 6.26902 -3.65772e-05 -0.00309448 0.0302937
93 2 5.36371 5.99478 6.65829 0.0123126 0.0379741 0.00172544
94 1 4.27007 4.8302 7.50948 -0.00148872 -0.00307728 0.00163994
95 2 3.9196 4.95863 8.41631 -0.0051281 -0.0182004 0.0144761
96 2 5.30479 6.35404 5.21525 0.0196272 0.0158359 -0.00417437
ITEM: TIMESTEP
3
ITEM: NUMBER OF ATOMS
96
ITEM: BOX BOUNDS pp pp pp
2.9236100000000000e+00 1.2773600000000000e+01
4.0306300000000004e+00 1.3880599999999999e+01
2.1372399999999998e+00 1.1987200000000000e+01
ITEM: ATOMS id type x y z vx vy vz
1 1 7.06699 13.04 3.42527 0.00544427 -0.00275234 -0.000458063
2 2 6.54826 12.2789 3.56015 0.0111857 0.00320794 0.0126885
3 2 9.58482 13.228 11.3824 -0.002308 -0.0244682 -0.017705
4 1 12.4515 10.1559 2.5234 0.00406671 -0.00449061 -0.0022647
5 2 11.562 10.6349 2.46915 0.0106017 0.00284404 0.0090167
6 2 12.3476 9.32987 3.0284 0.00605774 0.00673516 -0.00317421
7 1 12.2255 7.50314 3.63781 0.00500652 0.00500807 -0.00764669
8 2 11.2719 7.30154 3.86673 0.00394597 -0.00557429 0.0165947
9 2 7.95493 8.16504 8.50678 0.0126433 0.0118184 0.0089377
10 1 7.36756 8.12697 9.24981 -0.000860741 0.00686992 0.00371575
11 2 6.99066 7.18242 9.18689 -0.0014755 -0.0138801 0.0136251
12 2 6.33133 9.91662 9.14987 -0.00408081 -0.00425776 -0.0238233
13 1 5.98318 8.6341 2.14211 -0.000542772 0.00333883 -0.00126683
14 2 6.38162 8.90379 11.1846 0.0190738 -0.00158655 -0.0073092
15 2 5.32368 7.94665 11.6759 2.13772e-05 -0.0151568 0.00886271
16 1 9.53678 8.1064 11.124 0.00236686 0.00182039 -0.000725575
17 2 9.19033 7.80246 2.15419 0.0219651 0.0256311 0.000621026
18 2 8.74527 8.02201 10.5066 0.0102706 0.0119899 -0.000220428
19 1 4.66292 6.31187 11.1073 0.000682929 0.0033763 0.00353291
20 2 4.4438 6.40789 2.23617 -0.00802751 0.00389617 0.00838138
21 2 11.3715 8.46728 9.89789 0.0145415 -0.00335828 0.0320384
22 1 9.84323 10.8017 11.5762 -0.00304782 0.00204532 0.0041707
23 2 9.58506 10.937 2.64163 -0.00418792 -0.0369651 0.0027897
24 2 9.71178 9.8027 11.4245 0.0130452 -0.00648681 0.0202649
25 1 3.20435 8.29915 6.21407 -0.00110676 -0.00500707 -0.000562111
26 2 3.42806 9.24042 6.31172 -0.00130478 0.0123066 0.00634015
27 2 3.49295 6.15089 3.69482 0.0125371 0.0126419 0.00137464
28 1 9.54375 6.81825 4.24333 -0.00131896 0.00455071 0.00108199
29 2 8.95154 6.25639 4.67887 0.0321437 -0.0266005 0.00953654
30 2 9.24483 7.72889 4.43043 -0.0286104 0.0178471 -0.0196753
31 1 3.67787 11.1254 5.77062 -0.00345489 -0.00347775 -0.00400597
32 2 3.26283 12.6675 5.51256 -0.000709514 -1.87497e-05 0.00629408
33 2 4.24315 10.9072 4.77357 -0.0370975 0.031978 0.0149169
34 1 7.44336 4.88004 8.93409 -0.006915 -0.00431986 -0.00126546
35 2 7.91414 13.859 9.05101 -0.0075755 -0.0100812 0.00518779
36 2 7.443 5.29721 9.83792 0.00619389 0.0132388 0.00371027
37 1 8.17328 12.0064 9.8224 0.00658697 -0.0016131 -0.00225272
38 2 9.47795 12.5619 9.00378 -0.0227751 -0.0336779 0.0362513
39 2 8.68696 11.6374 10.5858 0.0270181 0.0177074 0.0271613
40 1 12.6833 13.5899 5.36756 -0.000138262 -0.00311884 0.00156893
41 2 3.70025 4.70009 4.24267 0.00403104 -0.00972137 -0.00419726
42 2 11.8595 13.3861 4.89665 0.00394547 0.0154385 -0.0166994
43 1 4.20266 5.51929 3.93609 0.000938447 -0.00272796 -0.00808881
44 2 12.5753 7.98086 4.42815 0.0166243 0.0246655 -0.0296236
45 2 7.66985 13.1819 4.12955 0.0193689 0.00765366 -0.00948574
46 1 9.90206 13.0161 8.20795 -0.00182999 -0.00263812 -0.00273956
47 2 8.58875 12.5065 7.20928 -0.0135389 0.00183486 -0.0071804
48 2 10.6637 12.4821 7.98686 0.00643938 0.00603107 0.0141521
49 1 9.97703 6.80455 8.51168 0.00638494 0.00228613 0.00417057
50 2 9.3422 6.06054 8.40336 0.0221086 -0.00846928 -0.0012168
51 2 9.70037 7.12154 9.35864 -0.0127453 -0.00150456 -0.000530612
52 1 9.09649 9.85485 4.51129 0.00051289 -0.0061585 -0.000212303
53 2 9.02294 9.53344 5.44109 -0.0197423 -0.00500534 0.023144
54 2 8.92625 10.7957 4.55939 -0.0128583 0.0248289 -0.0111337
55 1 5.01303 10.7668 3.47863 -0.00336 -0.00517222 0.000162656
56 2 5.3053 9.78053 3.33449 -0.0169433 0.0103967 -0.0237428
57 2 4.22378 10.8265 2.95026 0.0197517 -0.00780923 -0.0165052
58 1 5.89948 10.6804 9.55181 0.00178281 -0.00490114 0.0015357
59 2 5.17125 13.2002 7.23815 -0.0223738 -0.00441139 0.0077424
60 2 7.17782 11.7916 10.0521 -0.00978308 0.00113665 0.0196641
61 1 8.23092 5.26798 6.46399 0.0014617 -0.00135355 -0.00440501
62 2 8.26586 4.94628 7.43243 -0.0148031 0.0215047 0.00601619
63 2 7.41937 5.85297 6.46746 -0.00667172 -0.00222942 0.00832889
64 1 5.49137 12.231 7.25059 8.77701e-05 0.00303182 0.00255679
65 2 4.42606 11.2801 6.36479 0.00229844 -0.0062422 -0.00435887
66 2 3.52714 4.54978 6.95707 -0.00100113 -0.0287796 0.00772017
67 1 11.5885 10.6434 7.82049 -0.00699172 0.0026174 0.00328509
68 2 12.2232 10.6903 7.07555 0.00299272 -0.0166351 -0.00886246
69 2 11.9387 9.9718 8.4595 -0.00563969 -0.00965673 0.02873
70 1 10.1748 12.6515 4.05279 -0.00301602 0.00379552 -0.0023578
71 2 10.358 13.3749 3.40682 -0.0167652 -0.0056194 0.0119178
72 2 9.55076 13.0706 4.62049 0.0130593 -0.0310736 -0.013401
73 1 9.5371 8.98823 7.01856 -0.0074396 0.00223685 0.00230577
74 2 9.90618 8.09985 7.17736 -0.000862569 -0.00125105 -0.00342709
75 2 10.2852 9.67381 7.23273 0.0434635 -0.0150477 -0.0132976
76 1 12.4249 4.7636 9.88782 -0.00432238 0.00311535 0.00392168
77 2 11.6857 5.19481 9.48643 0.00214978 0.0141433 -0.00350204
78 2 3.96331 5.69601 10.7369 -0.00945835 0.00972287 -0.015941
79 1 12.2603 8.91941 9.7569 0.00366718 0.00410434 -0.000603617
80 2 12.4085 9.36744 10.6125 -0.0061183 -0.00741608 -0.0198664
81 2 5.46584 11.1059 8.78802 -0.00616075 0.00718894 0.0122005
82 1 7.50994 5.67758 11.4722 0.00300379 -0.000260842 0.00367767
83 2 7.53918 4.80758 11.8134 -0.0114643 0.0271068 0.0229062
84 2 6.63823 6.08325 11.6467 -0.00537645 -0.00255135 0.00803896
85 1 10.1775 4.03799 11.5823 -0.000801521 0.0062983 -0.00510538
86 2 9.62113 4.76237 11.7358 -0.0401207 -0.0105198 0.0136231
87 2 12.0423 4.24288 10.5506 0.00546055 0.0193527 -0.0272364
88 1 8.03029 12.4077 6.41397 0.00580522 -0.0039811 -0.00166889
89 2 6.4904 12.2153 6.95004 -0.00622452 -0.00683944 -0.0308931
90 2 7.89917 13.3344 6.15035 -0.0335981 0.0150498 0.0144748
91 1 5.6167 6.74819 6.11687 -0.00161994 -0.00238642 -0.00207137
92 2 4.03566 7.85374 6.28429 0.00469416 -0.00706307 0.0307618
93 2 5.36995 6.01391 6.66079 0.012178 0.0373791 0.00864025
94 1 4.26937 4.82864 7.51034 -0.0013554 -0.00313814 0.00182099
95 2 3.91672 4.94926 8.42323 -0.00620475 -0.0193437 0.0127714
96 2 5.31525 6.36356 5.21409 0.0219196 0.0216794 -0.000619515
ITEM: TIMESTEP
4
ITEM: NUMBER OF ATOMS
96
ITEM: BOX BOUNDS pp pp pp
2.9236100000000000e+00 1.2773600000000000e+01
4.0306300000000004e+00 1.3880599999999999e+01
2.1372399999999998e+00 1.1987200000000000e+01
ITEM: ATOMS id type x y z vx vy vz
1 1 7.06974 13.0387 3.42493 0.00553863 -0.00229537 -0.000918839
2 2 6.55362 12.2796 3.5673 0.0101564 -0.000360559 0.0159573
3 2 9.58221 13.2136 11.3728 -0.00691437 -0.0316735 -0.0201531
4 1 12.4535 10.1537 2.52224 0.00388085 -0.00427628 -0.00238906
5 2 11.5683 10.6351 2.47383 0.0145017 -0.00159936 0.00969936
6 2 12.35 9.33343 3.02658 0.00363535 0.00717124 -0.00389372
7 1 12.2279 7.50568 3.634 0.00488212 0.00513267 -0.00758543
8 2 11.2745 7.29863 3.87482 0.00686221 -0.00597366 0.0157386
9 2 7.96153 8.1709 8.51095 0.0135251 0.0115414 0.00793451
10 1 7.36707 8.13029 9.25169 -0.00111935 0.00638944 0.00378753
11 2 6.99095 7.17754 9.19372 0.00285243 -0.00518606 0.0136367
12 2 6.32965 9.91413 9.13834 -0.00275733 -0.00546888 -0.0221234
13 1 5.98283 8.63569 2.14152 -0.000823191 0.00301762 -0.00114594
14 2 6.39162 8.90355 11.18 0.0205212 0.000335361 -0.0102681
15 2 5.32445 7.93998 11.6808 0.00334382 -0.0112815 0.0104399
16 1 9.53789 8.10731 11.1237 0.00213635 0.00183672 -0.000680102
17 2 9.20174 7.81537 2.15347 0.0233015 0.0257179 -0.00309864
18 2 8.75078 8.02835 10.5075 0.0113793 0.0133068 0.00369042
19 1 4.6632 6.31352 11.1092 0.0004356 0.00324075 0.00380231
20 2 4.43994 6.40908 2.2386 -0.00741908 0.000788851 0.0012022
21 2 11.3801 8.46622 9.91373 0.0194001 -0.00112913 0.0310426
22 1 9.84171 10.8026 11.5782 -0.00303818 0.00184795 0.00411467
23 2 9.58289 10.9187 2.64364 -0.00452088 -0.0357097 0.00553164
24 2 9.71833 9.79975 11.4345 0.0132374 -0.00526543 0.0192193
25 1 3.20375 8.2967 6.21376 -0.00125903 -0.00476992 -0.000654653
26 2 3.42714 9.24663 6.31469 -0.0024994 0.0116781 0.00546144
27 2 3.49873 6.15791 3.69572 0.0105212 0.0151909 0.00236135
28 1 9.54315 6.82062 4.24379 -0.00107993 0.0049251 0.000763803
29 2 8.96667 6.2425 4.68481 0.0285031 -0.028568 0.0141878
30 2 9.23046 7.7373 4.42073 -0.0287569 0.0151142 -0.0191242
31 1 3.6762 11.1235 5.76839 -0.00325408 -0.0038985 -0.0048457
32 2 3.26277 12.6672 5.51586 0.00023946 -0.000841278 0.00678098
33 2 4.22304 10.9237 4.78338 -0.0429693 0.0333316 0.0236251
34 1 7.43994 4.87782 8.93343 -0.00674777 -0.00454905 -0.00131694
35 2 7.90979 13.8545 9.05369 -0.00993369 -0.00751796 0.00550722
36 2 7.44602 5.304 9.84015 0.00591057 0.0136286 0.00481898
37 1 8.17639 12.0055 9.82137 0.00585204 -0.00169138 -0.00179123
38 2 9.46739 12.5453 9.0215 -0.0186547 -0.0321097 0.0331674
39 2 8.70072 11.6459 10.5995 0.0273859 0.0163735 0.0267209
40 1 12.6832 13.5883 5.36833 -0.000249435 -0.00304522 0.00149616
41 2 3.70276 4.69525 4.24094 0.00596544 -0.00927141 -0.00281028
42 2 11.8609 13.3938 4.88822 0.00204291 0.0151184 -0.016892
43 1 4.20314 5.51789 3.93204 0.000963883 -0.00285644 -0.00812304
44 2 12.5835 7.99283 4.4137 0.0161883 0.023169 -0.028054
45 2 7.67943 13.1848 4.12566 0.0188182 0.00397302 -0.0062145
46 1 9.90115 13.0149 8.20658 -0.00184246 -0.00250481 -0.00268698
47 2 8.58301 12.5068 7.20708 -0.00913238 -0.000594652 -0.00128063
48 2 10.6672 12.4845 7.99386 0.00727221 0.00381325 0.0138669
49 1 9.98018 6.80561 8.51375 0.00624406 0.00193469 0.00409176
50 2 9.35396 6.0569 8.40229 0.0248492 -0.00614436 -0.00305749
51 2 9.69431 7.12125 9.35876 -0.0114646 0.000313122 0.000919932
52 1 9.09672 9.85175 4.51115 0.000401645 -0.00616013 -0.000274461
53 2 9.01329 9.53091 5.45287 -0.0187193 -0.00471367 0.0230938
54 2 8.92006 10.8085 4.55395 -0.0116375 0.0245908 -0.0105504
55 1 5.01146 10.7642 3.47878 -0.00292302 -0.00540286 0.000440824
56 2 5.29694 9.78667 3.32258 -0.0160353 0.0136561 -0.0236702
57 2 4.23204 10.823 2.94068 0.0130485 -0.00604949 -0.0217952
58 1 5.90037 10.678 9.55258 0.00177226 -0.0048633 0.00151469
59 2 5.16055 13.1969 7.24222 -0.0202551 -0.0085609 0.00848229
60 2 7.1743 11.7919 10.0608 -0.00373363 8.5544e-05 0.0151921
61 1 8.23156 5.26733 6.46184 0.00108025 -0.00123283 -0.00420816
62 2 8.25866 4.9574 7.43403 -0.013668 0.022718 0.000541414
63 2 7.41691 5.85119 6.47129 -0.00307692 -0.0048448 0.00662428
64 1 5.49146 12.2326 7.25188 0.000253407 0.00325547 0.00261296
65 2 4.42786 11.2774 6.36356 0.00496729 -0.00441173 -0.000424749
66 2 3.52619 4.53538 6.96082 -0.00259741 -0.0286788 0.00734441
67 1 11.585 10.6448 7.82207 -0.00715704 0.00272279 0.00306958
68 2 12.2246 10.682 7.07117 0.00245338 -0.0166311 -0.00799585
69 2 11.9363 9.96661 8.47439 -0.00461126 -0.0104399 0.030125
70 1 10.1733 12.6534 4.05163 -0.0028651 0.003842 -0.0023249
71 2 10.35 13.3716 3.41211 -0.015002 -0.00667846 0.00865938
72 2 9.55663 13.0548 4.61494 0.00941466 -0.0316574 -0.00786871
73 1 9.53342 8.98942 7.01973 -0.00720607 0.00254585 0.00237637
74 2 9.90584 8.09916 7.1761 -0.000796018 -0.00145655 -0.0017137
75 2 10.3062 9.66525 7.22602 0.0399705 -0.0191363 -0.0135738
76 1 12.4228 4.7652 9.88972 -0.00379496 0.00334067 0.00361572
77 2 11.6861 5.20222 9.48448 -0.00067692 0.0154994 -0.00430203
78 2 3.95934 5.70178 10.7294 -0.0062253 0.013546 -0.0136577
79 1 12.262 8.92141 9.75664 0.00333719 0.0038625 -0.000482486
80 2 12.4055 9.3638 10.6024 -0.00570025 -0.00652146 -0.0196528
81 2 5.46288 11.1099 8.79426 -0.00563926 0.00881297 0.0128016