ITEM: TIMESTEP
0
ITEM: NUMBER OF ATOMS
1151
ITEM: BOX BOUNDS pp pp pp
1.6762900000000000e-01 2.2849499999999999e+01
-2.0329000000000000e-01 2.2478600000000000e+01
8.2643499999999995e-02 2.2764500000000002e+01
ITEM: ATOMS id type x y z vx vy vz 
55 4 0.502875 4.58071 4.10715 -0.00568 0.011648 0.004299 
465 3 4.37325 1.86202 2.4161 0.005101 -0.001687 -0.008324 
466 4 3.48345 1.68196 2.71952 0.012749 0.004687 -0.004494 
467 4 4.28305 1.99297 1.4722 -0.004985 0.001362 -0.013849 
594 3 5.1976 4.22478 3.3444 0.001392 -0.000489 -0.003721 
596 4 4.83887 3.40306 3.00925 0.001073 0.011169 -0.008298 
641 4 5.63322 2.27982 5.65501 0.01145 0.013437 -0.006224 
768 3 4.83911 0.647922 4.92613 -0.009798 0.002395 -0.002119 
770 4 4.58003 0.654041 4.00468 -0.009689 -0.010545 0.010843 
864 3 1.83579 1.6063 3.58287 0.006846 0.001733 -4.8e-05 
865 4 1.4173 0.753803 3.70266 -0.006013 0.009353 -0.011559 
866 4 1.12008 2.19261 3.33744 0.021826 0.019435 -0.000746 
873 3 1.57591 2.62165 0.395643 0.004165 0.002328 0.002359 
874 4 2.50997 2.72196 0.579221 -0.000822 -0.012744 0.00358 
306 3 10.3461 3.5385 4.6554 -0.005143 0.001105 -0.005425 
307 4 10.5573 2.65213 4.36218 -0.016617 -0.002093 0.006604 
308 4 10.4689 3.51301 5.60435 -0.01224 -0.001068 0.002199 
399 3 8.16871 1.17715 5.2744 0.001788 -0.004831 0.001385 
401 4 7.72999 0.327612 5.22926 0.028761 0.008986 0.028228 
411 3 6.90058 0.371858 1.198 -0.004313 0.000821 0.001506 
412 4 7.52919 0.576435 0.505739 -0.01337 0.00179 -0.012246 
413 4 7.02443 1.06447 1.84698 -0.026942 0.003662 -0.031503 
595 4 6.11288 4.02474 3.54058 -0.004145 0.000777 0.007997 
709 4 11.0961 4.11601 0.101905 6e-06 -0.013028 0.001843 
791 4 6.50831 5.39356 1.74509 -0.003548 -0.000615 -0.003485 
933 3 9.95023 1.65394 1.90155 -0.005384 -0.003614 0.000721 
934 4 10.8216 2.03893 1.80848 -0.008989 0.011282 -0.016851 
935 4 10.0846 0.888106 2.45984 -0.022149 -0.004263 0.011298 
1035 3 7.70622 2.90783 3.20247 -0.00226 -0.002148 -0.001672 
1036 4 8.4578 2.82181 2.61598 0.021967 -0.01543 -0.025324 
1037 4 7.98365 2.47982 4.01245 0.001094 0.014103 0.012622 
99 3 12.2509 2.98632 2.08156 -0.002318 -0.001077 0.000468 
100 4 12.1554 2.8116 3.01782 -0.011221 -0.023582 0.004501 
101 4 12.4672 3.91744 2.03204 -0.007225 0.014535 -0.014423 
519 3 15.2322 2.29644 0.209781 -0.00027 0.004576 -0.000486 
520 4 14.6067 2.9698 0.477352 -0.008622 0.01467 0.009372 
521 4 15.8219 2.20566 0.958264 0.00167 0.007121 -0.001726 
645 3 16.7931 2.00331 2.33288 0.001868 0.008618 0.001855 
646 4 16.1942 2.46204 2.92204 0.000309 0.015935 0.002752 
653 4 14.4847 4.90468 3.7283 -0.007224 -0.001964 0.001109 
669 3 14.7242 0.223093 4.94889 0.000224 -0.005423 -0.009622 
671 4 15.6683 0.313937 4.82014 0.021963 -0.010756 -0.00221 
810 3 13.4338 4.97611 0.361687 -0.001226 0.00191 -0.003673 
855 3 15.2291 3.12658 4.29741 -0.001981 0.00212 0.002699 
856 4 15.493 3.58999 5.09229 -0.006177 -0.018783 0.008474 
857 4 14.9481 2.26454 4.60427 -0.017969 0.008711 -0.018064 
900 3 12.1542 1.39594 4.56667 0.000261 -0.000418 -0.001005 
901 4 11.6798 0.570225 4.46983 0.004459 0.003635 0.001099 
902 4 13.0157 1.1405 4.89652 -0.01957 -0.003884 -0.008486 
917 4 16.1307 0.320581 2.40709 0.02611 0.019367 -0.01133 
54 3 22.6404 3.798 4.02186 0.004047 0.001724 0.001269 
56 4 22.3049 3.64165 4.9046 0.001159 0.005118 0.001478 
117 3 19.9011 0.138514 2.94438 0.000618 -0.004947 -0.008564 
118 4 19.3176 0.599861 3.5468 0.001706 -0.01102 0.005885 
242 4 17.9258 1.44939 0.350142 0.022977 0.002009 0.006771 
286 4 20.4164 3.4368 0.202501 0.008937 0.015372 -0.001398 
480 3 22.5883 -0.20269 2.71568 0.00164 0.000289 0.001594 
482 4 22.5529 -0.000990383 1.78064 -0.001377 -0.005572 -0.003278 
647 4 17.6587 2.34522 2.55667 0.000775 0.016835 0.000957 
936 3 19.2274 3.51289 2.92255 -0.002453 0.0004 -0.002887 
937 4 19.952 3.11882 2.43692 0.003261 0.018738 -0.003537 
938 4 19.6317 4.22031 3.42486 -0.000462 0.002466 0.001922 
987 3 21.5914 2.81456 1.1818 -0.002929 -0.001274 0.003547 
988 4 22.4801 2.72265 0.838223 0.015126 -0.006742 -0.022358 
989 4 21.7126 3.09847 2.08786 0.036606 -0.009325 0.01137 
1143 3 17.6478 0.489431 4.90164 0.003194 0.0043 -0.001208 
1144 4 18.3613 1.00722 5.27454 0.007694 0.014037 -0.020426 
225 3 1.61821 6.45178 4.33872 0.003878 -0.003398 0.002362 
226 4 2.57009 6.4677 4.43825 0.021481 0.009832 -0.013504 
227 4 1.47414 6.5317 3.3958 -0.007251 0.018057 0.013732 
270 3 1.19479 9.99602 3.96278 -0.002346 0.003281 -0.005632 
271 4 1.64258 10.3893 4.71181 0.022515 -0.009502 -0.008254 
272 4 0.324838 9.77243 4.29357 0.004534 0.003505 0.015632 
315 3 3.96443 10.1801 2.32402 0.000991 0.004082 -0.00402 
316 4 4.50685 10.6014 2.99074 -0.01154 -0.000844 0.001964 
317 4 3.19766 9.86488 2.80248 0.007806 -0.000858 0.003074 
361 4 3.6832 8.00763 5.39796 -0.003243 -0.002946 -0.000396 
362 4 4.58427 9.22378 5.42889 0.024767 0.019268 -0.029456 
378 3 0.191145 8.74872 1.57642 0.001162 0.00836 -6.6e-05 
380 4 0.786505 9.10923 2.23354 -0.000509 -0.016242 0.017418 
390 3 0.342601 6.01724 1.96167 0.001615 -0.001221 0.001422 
392 4 0.62171 5.63883 1.12792 -0.024704 0.009127 -0.005085 
602 4 0.237516 6.29463 5.3396 0.011087 0.013432 -0.02921 
765 3 4.44969 6.8641 3.85132 -0.002432 -0.00178 0.000537 
766 4 4.64093 5.94638 3.65778 -0.009863 -0.005794 -0.014274 
767 4 4.50784 7.30525 3.00383 0.002031 0.002908 -0.007305 
790 4 5.79726 6.51752 1.0219 0.002927 -0.005334 -0.007731 
813 3 4.44944 7.79568 1.14111 0.008103 0.005199 0.000596 
814 4 3.97566 7.72383 0.312496 -0.00238 0.007728 -0.015296 
815 4 4.21738 8.66187 1.47592 0.021875 -0.018422 0.001796 
927 3 5.43052 10.5765 4.63478 -0.000998 0.000971 -0.003314 
332 4 6.02 10.929 0.796488 0.018497 -0.015949 0.001415 
339 3 10.7242 10.3806 1.88032 -0.003535 0.001594 -0.00275 
340 4 10.9352 9.47799 1.64161 -0.006662 -0.006119 -0.010287 
345 3 10.1338 6.41778 3.79239 -0.003219 -0.002836 0.003195 
346 4 9.2835 6.69287 4.13524 -0.00421 -0.004544 -0.000589 
347 4 10.1628 5.4743 3.95125 -0.005677 0.004638 0.009511 
357 3 8.02196 7.49996 4.95889 -0.001501 0.000973 -0.005565 
358 4 8.11428 8.09021 4.21102 0.013022 -0.007544 -0.025476 
359 4 8.13646 8.06294 5.72451 0.001164 0.006903 0.001022 
415 4 6.30191 5.97084 5.61448 -0.007162 -0.009878 -0.010662 
552 3 7.12987 8.82417 1.2385 -0.005664 -0.005275 0.003311 
553 4 6.81361 8.54411 0.379558 0.007881 0.004669 -0.015826 
554 4 6.97951 8.06924 1.80745 -0.00383 -0.017633 0.013494 
789 3 6.66706 6.15174 1.18279 -0.003185 0.008387 -0.005662 
831 3 8.14375 10.3 3.50739 -0.002043 -0.001256 0.002233 
832 4 7.56761 10.1474 2.75839 -0.000702 -0.003644 0.002306 
833 4 8.97891 10.5601 3.11868 -0.009943 0.00517 0.006061 
852 3 11.2809 6.90415 0.95577 0.000377 -0.00379 0.001546 
853 4 10.4752 6.67449 0.4929 -0.00144 -0.011092 0.006646 
854 4 11.0516 6.84041 1.8829 -0.00091 -0.005217 0.004289 
928 4 6.32412 10.5629 4.29197 -0.009717 0.006127 -0.001284 
7 4 16.0846 7.67639 5.5619 0.003243 0.018525 0.03353 
15 3 16.7691 6.21993 2.85772 -0.002351 -0.000551 0.004919 
21 3 13.6412 8.4554 0.567472 -0.000917 0.004528 -0.004383 
23 4 12.9121 7.88802 0.817785 -0.039415 0.002058 -0.000845 
341 4 11.5591 10.8454 1.82341 -0.008941 -0.009987 -0.000584 
651 3 14.0657 5.6435 3.28689 0.003358 -0.001927 -0.001921 
652 4 14.7306 5.96888 2.68001 0.00694 -0.0147 -0.005236 
682 4 15.4534 10.8098 2.29946 0.009241 -0.000324 -0.004998 
774 3 12.5922 8.19387 3.6951 0.002918 -0.000196 0.000686 
775 4 13.258 7.50711 3.65897 -0.006143 -0.010068 0.020263 
776 4 11.7917 7.73855 3.95604 -0.012204 0.012736 -0.002777 
812 4 13.172 5.87034 0.580891 0.015119 0.008444 -0.011519 
1011 3 14.0164 10.588 3.45477 0.003861 -0.000206 -0.004454 
1012 4 13.4222 9.84411 3.55361 -0.009114 -0.002952 -0.00277 
1013 4 14.3682 10.7325 4.33317 -0.002249 -0.006213 -0.001697 
1087 4 15.6159 8.03371 0.139655 -0.004724 0.005668 -0.009455 
16 4 17.2933 6.42363 2.08316 -0.006505 -0.021715 -0.006181 
17 4 17.3729 5.76217 3.44258 0.018094 0.006966 0.027167 
33 3 18.4211 10.0108 2.44269 -0.002572 -0.002046 -0.009372 
34 4 18.6699 9.98751 3.36669 -0.027848 0.00203 -0.003684 
35 4 17.524 10.3447 2.44407 0.018226 0.032012 0.006349 
129 3 18.0858 10.4044 5.07343 0.00074 0.005012 0.000352 
130 4 17.4163 11.0691 4.91147 0.00067 0.02114 0.004222 
219 3 20.9016 9.9998 5.05605 -0.000679 0.003696 0.000271 
221 4 19.9567 10.0853 4.92882 0.002735 0.006851 -0.003782 
258 3 20.6522 5.77165 3.43305 0.001186 -0.003856 -0.003441 
259 4 20.1745 6.41903 2.91445 0.004843 0.008445 -0.000151 
260 4 21.4893 5.6713 2.97972 -0.022927 -0.01926 0.013337 
379 4 22.2311 9.44299 1.42754 -0.003365 0.006778 -0.016335 
391 4 22.8168 6.9283 1.75415 -0.002747 -0.000894 -0.002539 
600 3 22.0261 6.27522 5.68295 0.001963 -0.001834 -0.007021 
601 4 21.4844 6.04102 4.92935 -0.024352 0.008153 0.015875 
620 4 19.3467 5.58779 5.1805 0.011267 0.001343 0.010541 
717 3 20.5902 10.6649 0.879443 -0.001967 -0.003598 0.010944 
718 4 19.9113 10.5947 1.5506 0.003217 6.6e-05 0.023083 
719 4 20.3796 9.97348 0.251888 -0.020066 0.007783 0.017726 
903 3 19.1564 7.30428 1.77379 0.003434 -0.00091 0.003008 
904 4 18.9347 8.23481 1.80833 0.006228 -0.013249 -0.008889 
905 4 19.494 7.17073 0.888118 0.004772 0.003898 0.025584 
160 4 1.43406 14.2098 5.51737 0.003356 -0.028258 -0.004012 
304 4 5.73761 14.0299 3.36609 -0.005351 -0.009489 0.008697 
305 4 5.58668 14.6714 4.72903 0.008505 -0.009816 0.005572 
573 3 4.24128 13.8698 2.22467 -0.002703 -0.002549 0.001534 
574 4 3.79344 13.3576 1.55137 -0.015037 0.006737 0.005322 
575 4 3.79313 14.7156 2.22052 -0.000931 -0.006029 -0.004135 
654 3 2.99086 12.1838 0.472118 0.002459 0.002941 0.008863 
656 4 3.19488 11.2526 0.558994 0.011545 -0.002938 -0.005489 
707 4 0.824062 14.498 3.20061 -0.010145 0.012535 0.002925 
761 4 4.7859 16.7263 5.26737 -0.000335 -0.003915 -0.015315 
816 3 2.27772 13.56 4.11782 -0.002559 0.007963 0.006739 
817 4 2.45256 12.9744 4.85453 -0.004746 0.001888 0.011574 
818 4 2.99738 13.3993 3.50749 -0.003374 0.009653 -0.004214 
929 4 5.45754 11.2119 5.35013 -0.013516 0.001089 0.003901 
1110 3 3.27776 16.4707 2.08004 0.00129 -0.001253 0.001962 
1112 4 2.37438 16.6838 1.84607 0.01442 -0.001062 -0.002948 
204 3 8.95338 16.7668 0.790929 -0.000676 0.007318 0.004052 
206 4 8.10956 16.571 0.383666 -0.009966 0.011145 0.010472 
303 3 6.22353 14.2317 4.16571 0.006433 -0.003678 0.00409 
457 4 5.89074 16.0096 0.712167 0.002066 0.00115 -0.006462 
650 4 9.62505 16.131 4.60428 -0.012776 0.002671 0.000442 
731 4 10.8741 16.6873 0.511493 0.00826 0.008185 0.000815 
783 3 8.94668 13.9053 3.9226 -0.002417 -0.002296 -6.1e-05 
784 4 8.00486 13.872 4.09023 0.013571 0.012787 0.024313 
785 4 9.03097 13.7158 2.98814 -0.027759 -0.002629 -0.008829 
823 4 9.80434 14.4067 5.50222 0.00301 0.031124 0.017375 
825 3 9.64671 14.2461 1.08972 -0.003646 -0.000265 -0.003194 
826 4 9.46431 15.1845 1.04018 0.015013 -0.025787 -0.010949 
827 4 8.91594 13.8349 0.628092 -0.008489 -0.017567 0.00728 
438 3 14.0514 16.0658 2.6034 -0.004065 0.005628 -0.004192 
439 4 13.3609 15.8221 3.21993 -0.000958 -0.016718 -0.008684 
440 4 13.6141 16.6266 1.9627 -0.014862 0.003821 0.007056 
453 3 12.7635 15.0836 4.88796 0.001174 0.004284 0.003594 
454 4 13.3485 14.7014 5.5421 -0.023855 -0.043138 -0.006042 
455 4 11.9175 15.148 5.33106 0.005314 0.012247 0.005062 
636 3 12.8955 12.3598 1.23441 0.002358 -0.005605 0.000239 
637 4 12.5222 12.6556 2.06468 -0.021318 -0.011385 -0.001715 
638 4 13.8123 12.173 1.43652 -0.005352 -0.009986 -0.018061 
681 3 16.0601 11.3579 1.80175 -0.000998 0.002441 0.003122 
683 4 15.9293 12.2393 2.15134 0.000778 0.016273 0.004502 
730 4 12.2918 16.3597 0.0936172 -0.000439 -0.00229 0.014917 
969 3 16.5693 12.5038 5.12886 -0.002911 0.003939 -0.003986 
970 4 17.0793 13.0365 5.73911 -0.009954 0.013973 -0.002927 
971 4 16.2507 13.1264 4.4753 0.011455 -0.010657 0.006751 
984 3 15.6477 13.9025 2.89354 0.001922 0.002838 -0.005377 
985 4 16.459 14.2726 2.54573 0.003816 -0.007825 0.016551 
986 4 15.0229 14.6272 2.86775 0.011156 -0.010666 0.017441 
42 3 18.3638 14.4917 3.6418 0.00051 -0.0021 -0.004512 
43 4 19.0461 13.8691 3.89294 -0.0029 0.026969 -0.014107 
44 4 18.2118 14.3192 2.71262 0.019002 -0.011775 0.018818 
161 4 22.788 14.9128 5.3322 0.021172 0.002296 0.013316 
197 4 18.0687 15.6704 5.47277 -0.013202 -0.004159 -0.010017 
282 3 22.0329 12.6711 2.04982 0.005233 6.4e-05 0.000375 
283 4 21.4145 12.0914 1.60511 0.013141 -0.000644 -0.003748 
284 4 22.8078 12.1286 2.19605 -0.018949 0.003706 -0.012913 
312 3 17.6324 14.1312 0.838758 -0.003124 -0.001813 0.00069 
313 4 17.5213 13.3041 0.370024 -0.020856 0.009924 0.001545 
314 4 18.0212 14.7221 0.193887 0.013623 -0.009162 -0.001144 
423 3 20.5232 13.0223 4.49399 -0.005293 -0.002331 0.006321 
424 4 20.6394 12.2227 5.00712 0.01559 -0.004727 0.023415 
425 4 20.963 12.8405 3.66347 -0.01025 0.00793 0.013797 
705 3 22.7821 15.1132 3.08304 -0.001146 0.003474 0.007013 
706 4 22.0122 14.5575 2.96136 0.012833 -0.003645 -0.000758 
751 4 18.5753 16.2397 3.0688 -0.020767 -0.006737 -0.00973 
835 4 21.7762 14.6143 0.733711 0.011988 0.011536 -0.008982 
228 3 1.87152 17.9897 0.510025 -0.006483 -0.00137 0.003056 
229 4 0.926642 18.066 0.642732 0.013412 0.01279 2.3e-05 
230 4 2.14639 18.8638 0.23336 -0.003269 -0.009472 0.008789 
237 3 5.14876 21.0141 1.28138 0.002246 -0.002835 -0.00377 
238 4 5.52718 21.8925 1.24257 -0.001367 0.00449 0.001379 
239 4 4.27639 21.1115 0.899668 0.002416 -0.00376 -0.004928 
450 3 3.12706 17.9597 5.07975 0.004029 -0.002055 0.002172 
452 4 2.44534 17.9246 4.40874 -0.001812 0.001434 -0.018689 
483 3 1.25147 20.6806 4.52222 0.005098 0.004243 0.003512 
484 4 0.817841 21.2898 3.92463 -0.001934 0.000422 0.003287 
485 4 1.1748 19.8283 4.09341 0.00286 0.002614 -0.01191 
678 3 3.8614 20.8637 5.55749 3.6e-05 0.00108 -0.00492 
679 4 2.99272 20.806 5.15962 0.034591 -0.007942 0.008286 
756 3 0.613495 17.9787 3.40053 -0.005144 -0.001545 -0.001436 
758 4 0.403782 17.0593 3.23631 0.003487 -0.010835 -0.005293 
769 4 4.60904 22.4533 5.2343 -0.018411 0.016877 0.005797 
1008 3 5.63452 18.3466 2.18138 0.002699 -0.002236 -0.007414 
1009 4 5.51925 18.687 1.29422 0.012334 0.003178 -0.028816 
1010 4 5.06386 18.8913 2.72348 0.019698 -0.002131 -0.007647 
1111 4 3.80996 17.0493 1.53394 -0.010925 0.008454 0.004249 
120 3 8.14389 18.3787 2.88054 0.003886 -0.001665 -0.001299 
121 4 7.21472 18.3127 2.66027 -0.005247 -0.011384 -0.010833 
122 4 8.36642 19.294 2.71053 -0.016822 0.013771 0.009052 
205 4 8.72879 17.2333 1.59602 -0.003222 -0.004387 0.003569 
293 4 11.4743 21.4285 0.839692 0.004106 -0.012603 0.006661 
648 3 9.51687 17.0642 4.78761 -0.000871 0.005072 0.002506 
649 4 8.85993 17.3582 4.15655 0.005955 -0.008099 0.002724 
870 3 7.18469 20.9384 5.14137 -0.002941 0.006596 -0.002627 
871 4 6.33471 21.1565 5.52373 -0.00778 0.00904 0.000319 
872 4 7.37016 20.0541 5.4573 -0.004836 -0.001955 -0.005421 
962 4 11.4091 18.4549 3.15419 0.001974 0.006638 0.000504 
972 3 8.79718 21.3213 2.9642 0.006662 -0.002501 -0.004734 
973 4 8.291 21.1146 3.74987 -0.005375 0.007566 0.003972 
974 4 8.13791 21.4738 2.28719 -0.013052 -0.008422 -0.007323 
1002 3 11.0345 21.4766 4.48216 0.003311 -0.000585 -0.003947 
1003 4 10.8812 20.7104 5.03506 0.010107 0.014686 0.001654 
1004 4 10.3193 21.4605 3.84613 0.005856 0.007813 -0.004219 
171 3 15.3227 19.6527 0.90039 0.003646 0.000334 0.002195 
172 4 15.459 20.5181 1.28611 0.036935 0.00485 0.016483 
173 4 15.6941 19.0441 1.53906 -0.010564 -0.010233 0.024288 
534 3 14.0504 20.7021 3.59961 0.001011 0.005515 0.003097 
535 4 13.2364 20.8909 3.13267 0.008323 0.003822 -0.003786 
536 4 13.9232 19.8237 3.95807 0.00907 0.004074 -0.004445 
670 4 14.516 22.0399 4.59599 -0.003252 -0.027978 -0.024364 
729 3 11.7883 16.8467 0.745972 -0.003074 -0.004911 0.002788 
882 3 16.1514 17.5372 2.48836 0.001845 -0.003433 -0.002091 
883 4 16.4013 17.4088 1.57332 0.005298 -0.005559 0.006847 
884 4 15.3679 16.999 2.60094 -0.014103 -0.002419 -0.025476 
915 3 15.9485 22.0828 2.21412 0.001041 0.000915 -0.008232 
916 4 15.2561 21.8411 2.82926 0.000787 0.012797 -0.001861 
960 3 12.2011 18.7813 2.727 -0.002691 0.003661 -0.001385 
961 4 12.207 18.3514 1.87179 -0.012922 0.001808 -0.001045 
119 4 19.3172 22.2837 2.40849 -0.007361 0.021875 -0.010787 
213 3 21.6328 18.1805 0.850806 -0.006925 0.006973 -0.000238 
214 4 20.7517 18.3748 1.17036 0.015828 -0.027578 -0.016147 
255 3 18.3334 20.9055 1.79031 0.00107 0.003036 0.005907 
256 4 17.4116 21.0703 1.98889 -0.004444 0.01783 -0.004826 
257 4 18.367 20.8502 0.835299 0.015225 0.001526 0.008372 
301 4 18.971 20.2538 5.22837 0.013335 -0.019247 0.004155 
432 3 20.0232 18.2931 5.67196 0.008834 0.007887 0.002906 
433 4 20.4063 18.6509 4.87105 0.00091 0.005309 0.001463 
434 4 19.4429 17.5947 5.36919 -0.01058 -0.002205 0.004386 
464 4 22.8274 18.5993 5.28306 -0.010767 -0.003246 0.001122 
481 4 21.678 22.312 2.95979 -0.001806 0.003029 0.002522 
750 3 18.6073 17.1816 3.23625 0.004958 0.00216 0.000166 
752 4 17.6904 17.4565 3.23745 0.009419 -0.02443 0.023615 
753 3 19.929 19.429 3.13421 -0.003489 0.003964 -0.0056 
754 4 19.5657 18.5687 2.92426 -0.00582 -0.007551 0.005395 
755 4 19.3949 20.0442 2.63165 -0.003806 0.007293 -0.008953 
757 4 22.8405 18.4562 2.70677 -0.01125 0.004944 0.00056 
1145 4 17.8395 22.272 5.16758 0.00997 0.00027 0.006575 
48 3 2.31332 1.48107 6.79996 0.00021 -0.003071 -0.000755 
49 4 2.52285 1.54948 5.86848 -0.01394 -0.004846 0.002623 
50 4 2.36756 2.37984 7.12478 -0.007327 0.010639 -0.001603 
111 3 5.02365 1.18499 10.9572 -0.008565 0.006321 -0.000219 
112 4 4.13419 1.4815 10.7644 0.030039 -0.003627 -0.012788 
182 4 5.81709 4.96975 9.4273 0.004633 0.002037 -0.001692 
216 3 2.48446 1.59613 9.6858 -0.005358 0.001702 0.003594 
217 4 1.89508 2.35018 9.66971 -0.013382 0.01049 0.004456 
218 4 2.48218 1.2705 8.78569 -0.013874 0.003073 -0.004521 
396 3 0.681727 3.90046 9.72615 -0.006993 0.003805 0.000144 
397 4 1.45094 4.27854 10.1523 -0.011081 -0.00238 0.003438 
546 3 3.46385 4.91483 11.3038 -0.004496 -0.002078 0.001627 
744 3 5.58458 -0.105543 7.67548 0.002935 -0.004093 -0.005396 
745 4 4.81209 0.152398 8.17842 0.009451 -0.003351 -0.008051 
746 4 5.73603 0.625508 7.07643 0.003811 -0.007326 0.000751 
878 4 0.887701 0.308677 6.81216 -0.01035 0.006866 0.012253 
1140 3 2.66168 4.05755 7.25324 0.006929 -0.006537 0.007052 
1141 4 3.43752 4.61644 7.29731 0.015944 -0.00028 0.001978 
1142 4 1.93446 4.66627 7.12349 -0.004618 -0.021318 0.008455 
150 3 7.3971 -0.0661885 10.227 -0.003731 0.000285 0.00579 
152 4 6.91669 0.627847 10.6784 0.016052 0.004051 0.026753 
162 3 10.5301 1.01739 7.39064 -0.00506 -0.003703 -0.000236 
163 4 10.8043 1.22601 6.4976 -0.025547 0.009077 -0.004576 
164 4 9.92987 1.72401 7.62865 -0.016564 -0.024868 -0.000525 
393 3 9.50694 2.91023 9.41584 0.004998 0.000116 0.003706 
394 4 9.64688 3.62771 10.0338 0.005951 0.002883 0.006195 
395 4 8.56068 2.89851 9.272 0.003734 0.000486 0.004616 
400 4 7.71127 1.64673 5.97188 -0.017636 -0.004636 0.017257 
441 3 10.0253 0.314345 10.9703 0.005035 0.001494 -0.002139 
442 4 9.09167 0.305447 10.7594 -0.003561 0.00244 -0.002806 
443 4 10.4187 0.866523 10.2946 0.006532 -0.014182 -0.00364 
639 3 6.0461 2.72341 6.39595 -0.002244 -0.003156 -0.000158 
640 4 5.92297 3.65555 6.21654 -0.006712 0.023946 0.002495 
849 3 6.50334 3.09115 9.07713 0.003137 0.00014 0.002034 
850 4 6.33132 2.80163 8.18113 -0.00025 -0.006376 0.006767 
851 4 5.85997 2.62222 9.60855 -0.001142 -0.008138 0.008217 
1005 3 8.64999 5.19072 6.93492 0.001903 0.000221 0.005252 
52 4 13.8557 4.56372 9.24172 0.006399 0.002856 -0.005518 
60 3 15.932 3.96871 6.79462 -0.000309 -0.006448 -0.008473 
61 4 16.8107 3.75269 7.1068 -0.019137 0.008405 0.001514 
62 4 15.9049 4.92552 6.79714 0.005865 0.000414 0.035963 
471 3 12.0877 3.45635 6.60584 0.001171 -0.005669 0.002629 
472 4 11.8025 4.32102 6.90119 0.010382 0.00133 0.013095 
473 4 12.5648 3.62554 5.79344 -0.005055 -0.009896 5.9e-05 
633 3 14.0892 1.89992 7.48186 0.000902 0.002035 -0.004031 
634 4 14.8773 2.12161 6.98595 0.009716 0.007377 0.017235 
635 4 13.4853 2.62193 7.30803 -0.014081 -0.0043 0.015318 
642 3 12.3865 2.10884 9.70449 -0.002071 -0.003467 -0.002657 
643 4 11.6297 2.54857 9.31699 0.000942 -0.009982 0.012397 
644 4 12.8419 1.7146 8.96056 -0.019222 0.003845 -0.0139 
672 3 15.2816 2.91453 9.88031 0.002534 -0.000591 -0.001732 
673 4 14.8617 2.29359 9.28503 0.005342 0.000423 0.015025 
674 4 16.1277 2.51631 10.0848 0.008511 0.003263 -0.003778 
114 3 20.0281 0.309632 9.60996 -0.000592 0.000152 0.00477 
115 4 20.4507 -0.111763 8.86159 -0.007156 -0.033098 -0.019881 
264 3 18.0705 5.34695 11.3292 0.002429 0.003302 0.005709 
265 4 18.851 5.30639 10.7765 0.002505 -0.009239 -0.00295 
342 3 20.1525 1.15488 6.07835 0.003261 -0.001331 -0.002144 
343 4 20.7791 0.476321 6.32976 -0.007603 0.001095 0.007801 
344 4 20.6763 1.95348 6.01457 -0.025653 -0.007984 0.007147 
398 4 22.6962 3.8779 10.4119 -0.017391 0.003512 -0.018356 
418 4 20.9481 5.12485 10.8689 0.004893 -0.013181 -0.010075 
618 3 19.1005 5.41676 6.08955 -0.000354 0.005108 0.007362 
930 3 18.1391 2.28376 10.1603 0.007235 0.000339 -0.002604 
931 4 18.0471 2.7226 9.31461 0.015697 0.005067 0.00483 
932 4 18.9361 1.76078 10.0738 -7e-06 0.001185 -0.015689 
1014 3 18.4844 3.24445 7.56577 0.002881 -0.001001 0.000401 
1015 4 19.0654 3.92071 7.2174 0.01308 0.005908 0.011869 
1016 4 18.9519 2.42358 7.41136 0.009521 -0.00315 -0.000686 
1056 3 22.0267 3.28925 7.11706 0.00339 -0.003653 -0.005441 
1057 4 21.7641 4.20245 7.00154 -0.02601 -0.019969 -0.018807 
1058 4 22.3515 3.24487 8.01637 -0.005506 -0.0085 -0.009084 
39 3 0.229694 7.4356 10.398 -0.001529 0.005558 7.8e-05 
40 4 0.341919 7.45709 9.44764 -0.003415 0.013665 -0.00119 
110 4 3.3818 11.1352 6.07446 0.00647 -0.001372 0.004501 
180 3 5.74158 5.88217 9.70662 0.001494 -0.001414 0.001097 
348 3 0.641437 10.1938 7.81367 -0.000263 0.00371 -0.00274 
360 3 3.91901 8.76144 5.9387 0.005968 0.000417 -0.005129 
414 3 5.76527 5.53345 6.27549 -0.002793 -0.00414 -0.00087 
416 4 5.02776 6.12698 6.41701 0.009019 -0.003928 -0.001049 
507 3 4.31018 9.27875 10.896 -0.001834 0.000217 0.001896 
508 4 5.01036 9.92642 10.8153 0.00966 0.005826 0.010647 
509 4 4.0082 9.13873 9.99854 0.001662 -0.008877 0.010121 
548 4 4.14762 5.50427 10.9856 0.001253 0.004412 0.007459 
627 3 3.15107 9.31461 8.42049 -0.002098 -0.007903 0.011505 
628 4 2.24599 9.55723 8.22505 -0.032439 -0.011132 -0.008253 
629 4 3.60202 9.37146 7.57809 -0.018057 -0.002778 -0.011498 
978 3 3.80597 6.46527 8.09512 0.009585 -0.001294 -0.000282 
979 4 4.46183 6.16003 8.72195 -0.006124 0.008996 0.006509 
980 4 3.66519 7.38413 8.3234 0.000869 -0.012356 0.007722 
177 3 7.64427 9.35824 9.95843 -0.002727 0.006773 -0.004112 
178 4 7.98951 9.37841 10.851 -1.3e-05 0.002021 -0.00653 
179 4 7.05791 10.1133 9.9108 -0.003404 0.005377 0.002435 
181 4 6.61282 6.25074 9.56057 -0.000133 -0.002763 0.001696 
252 3 8.23799 6.93664 9.47429 0.000279 0.001377 -0.001644 
253 4 8.01833 7.86387 9.56493 -0.001789 -0.001617 0.002182 
254 4 8.80274 6.74939 10.2241 0.006992 0.000173 -0.000955 
495 3 11.1191 8.96637 7.24108 -0.004424 -0.003546 -0.006406 
496 4 10.1771 8.99509 7.40837 0.019779 0.003883 0.00838 
497 4 11.2014 9.13528 6.3025 -0.022682 -0.001338 -0.013491 
528 3 11.3011 6.06934 7.11066 0.00528 -0.005647 0.00117 
529 4 11.2182 7.01291 7.24858 0.006197 -0.012682 0.004003 
530 4 10.4122 5.73171 7.22053 0.011104 -0.000411 -0.009793 
1006 4 7.94413 5.53022 6.38471 0.007029 0.010315 -0.014697 
1007 4 8.55329 5.6579 7.76475 0.004243 0.004815 -0.003749 
1119 3 8.15366 9.56772 6.70198 0.000549 0.001989 -0.000635 
1120 4 8.18637 10.5179 6.59073 0.005132 -0.020425 0.01507 
1121 4 7.85425 9.44169 7.60237 -0.024766 0.008012 -0.002424 
6 3 16.6054 7.11575 6.13698 -0.001395 0.002491 -0.001597 
8 4 16.4363 7.4518 7.01716 -0.00695 -0.021084 0.007924 
51 3 13.7162 5.49792 9.08669 0.001691 -0.000166 0.001471 
53 4 14.5943 5.85125 8.94384 -0.002468 0.003067 0.003005 
309 3 12.5437 7.08718 11.4212 -0.003041 -0.003934 -0.000355 
310 4 13.0198 6.82708 10.6326 0.004121 0.005584 -0.003288 
384 3 12.2615 9.98313 11.4023 -0.002014 -0.0013 -0.003845 
385 4 12.7224 10.5161 10.7544 -0.010093 -0.004527 -0.012385 
386 4 12.5429 9.08665 11.2196 0.007721 -0.02166 0.013353 
630 3 16.0216 7.15597 10.9978 -0.002244 0.005265 9.5e-05 
632 4 16.6708 6.46337 10.8751 0.005547 -0.028723 -0.00357 
660 3 13.4769 9.63968 8.51906 -0.000979 0.003811 -0.005065 
661 4 12.6618 9.18894 8.29861 0.024865 0.002226 -0.024635 
662 4 13.7678 10.0271 7.6935 0.011021 -0.006882 0.004697 
1095 3 14.4519 11.0469 6.23129 0.008392 -0.005867 0.003953 
1125 3 15.8415 8.38226 8.52811 0.002661 0.00193 0.000376 
1126 4 15.0119 8.84739 8.63575 -0.004244 -0.003706 -0.002014 
1127 4 15.9878 7.95415 9.37164 -0.001283 0.010236 0.001122 
41 4 22.4685 8.25819 10.606 -0.002696 -0.010068 -0.00304 
102 3 21.3948 8.18964 7.35642 -0.000583 -0.000372 0.001869 
103 4 21.5169 7.39895 6.83094 -0.004267 -0.012945 0.005247 
104 4 20.5929 8.0263 7.85299 -0.00113 0.00015 -0.00513 
131 4 18.0419 10.2443 6.01612 -0.008169 0.019798 -0.017171 
220 4 20.9912 9.56579 5.90448 0.010682 -0.011621 0.000122 
349 4 22.8392 10.8365 8.33213 -0.005676 0.000469 0.006548 
350 4 22.6862 9.5029 7.63215 -0.013268 0.006286 0.027784 
417 3 20.6163 5.86421 10.3595 -0.000162 0.003981 -0.001629 
419 4 21.389 6.4017 10.1854 -0.001401 -0.012617 0.005613 
468 3 18.013 10.1777 7.90138 -0.004623 -0.00605 -0.00481 
469 4 18.7403 9.67812 8.27249 -0.02763 -0.00837 -0.010279 
470 4 17.2291 9.76935 8.26885 0.006733 -0.025854 -0.009616 
619 4 18.57 6.17284 6.34082 -0.019721 -0.008916 0.002288 
945 3 21.3426 11.0518 9.45038 0.002903 -0.006179 0.00296 
947 4 21.414 10.7048 10.3396 0.007743 -0.014781 -0.009123 
1107 3 19.1966 8.04654 9.44107 -0.001779 -0.003159 0.003713 
1108 4 19.6095 7.27182 9.82256 -0.024271 -0.013805 -0.006547 
1109 4 18.9073 8.5602 10.1952 0.005945 0.012199 -0.021506 
57 3 3.0618 15.8015 10.2638 -0.003399 0.001582 0.001884 
58 4 3.83753 16.2037 10.6546 0.008597 -0.00511 -0.003878 
59 4 2.36805 15.9424 10.9081 0.00935 -0.003529 0.002346 
108 3 2.50954 11.4924 5.90776 0.009855 0.000768 -0.001441 
109 4 2.01309 11.2937 6.70166 0.028025 -0.004977 -0.015306 
159 3 0.757534 14.6882 5.99662 -0.00104 -0.005558 0.00526 
510 3 5.41112 12.3916 6.82769 -0.005381 0.008772 0.00438 
511 4 5.17962 13.0604 7.47219 -0.012827 0.003261 0.00263 
540 3 2.93888 16.3057 7.48837 -0.006623 -0.000554 0.004687 
541 4 2.86242 16.042 8.40535 0.019464 -0.011026 0.003946 
542 4 2.32427 15.738 7.02337 -0.002109 -0.010385 -0.010978 
606 3 5.56161 16.1056 11.1756 -0.003173 0.002371 -0.001845 
732 3 5.50233 14.2053 8.72141 0.001703 0.00584 0.002316 
734 4 4.79074 14.3785 9.33773 0.007044 0.042857 -0.004716 
759 3 5.10848 16.1226 5.9365 0.004946 -0.003733 -0.008541 
760 4 4.49586 16.2224 6.66518 -0.009464 -0.000605 -0.011869 
1075 4 0.231786 15.2613 7.59432 0.001269 -0.016506 0.00677 
1076 4 0.25152 14.5679 8.93994 0.00092 -0.008373 0.005569 
1083 3 5.64359 11.2978 9.8616 0.002661 -0.000574 -0.003346 
1084 4 5.49138 11.2975 8.91658 -0.023755 -0.00741 -0.027169 
1085 4 5.78357 12.2188 10.0818 -0.008693 0.00392 0.002399 
127 4 9.69431 16.3978 8.59058 -0.005811 0.04313 0.003768 
512 4 6.36549 12.4354 6.76863 -0.000491 -0.015284 -0.003234 
567 3 8.36042 12.37 6.87768 0.001025 0.011404 -0.001948 
568 4 9.11564 12.7036 6.39336 0.008885 0.003965 0.002694 
569 4 8.20136 13.0263 7.55604 0.001575 0.009146 -0.012473 
603 3 10.7019 14.97 10.4263 0.000404 0.006213 -0.005471 
604 4 10.5332 15.5153 11.1947 -0.008041 0.009905 -0.011409 
733 4 5.96851 15.0385 8.65272 0.011384 0.005247 0.001588 
780 3 8.80721 13.9398 8.92042 0.00686 0.000968 0.000826 
781 4 8.31859 13.5409 9.6404 0.015377 -0.016027 0.003697 
782 4 9.65669 14.1625 9.30125 -0.004006 0.001716 0.003411 
792 3 7.92578 12.4208 11.0449 -0.003171 -0.00182 0.001241 
822 3 10.4719 14.471 6.1852 -0.006071 0.002066 0.001962 
824 4 10.2878 15.3019 6.62326 0.009372 -0.006233 -0.003115 
24 3 13.5325 14.5281 10.5252 -0.000239 3.1e-05 0.000371 
25 4 13.9895 13.7805 10.9106 0.004078 -0.010859 0.002326 
26 4 13.3422 15.1017 11.2675 0.001063 0.00959 -0.00219 
36 3 14.8311 12.1803 11.0791 -0.004698 -0.0023 0.006105 
37 4 15.2865 12.59 10.3436 0.000592 -0.014357 -0.001836 
196 4 17.0096 16.557 6.09248 -0.010763 0.009274 0.007447 
405 3 16.3652 13.9048 8.77785 0.003992 0.001063 0.003994 
406 4 16.5476 14.6866 9.29916 0.003563 -0.017853 0.008388 
502 4 15.0144 16.1398 6.51557 -7.6e-05 -0.002254 -0.010031 
605 4 11.5938 14.6463 10.5528 -0.004281 -0.003709 0.001391 
954 3 12.4104 12.5601 7.57282 -0.002317 -0.001805 0.001898 
955 4 11.6759 13.1727 7.61035 -0.008108 -0.015949 0.016355 
956 4 12.0936 11.7776 8.02399 0.002898 0.009064 -0.009312 
1096 4 15.1914 11.633 6.07053 0.012196 0.000337 -0.003551 
1097 4 13.73 11.6301 6.46571 0.011541 -0.008871 -0.014211 
1105 4 13.719 16.1351 9.41291 0.005331 0.008439 -0.011084 
1149 3 14.4331 14.398 6.79696 0.004443 0.000438 0.005364 
1150 4 13.7206 13.8556 7.13528 -0.013285 0.005579 0.009479 
1151 4 15.1392 14.2917 7.43446 0.015219 -0.010263 -0.0129 
69 3 19.9103 13.3103 10.2633 0.006429 -0.001168 0.001531 
70 4 19.7063 13.1157 11.178 -0.023243 0.023049 -0.012111 
71 4 19.6108 14.2106 10.1369 0.003463 0.007752 0.023313 
195 3 17.9508 16.3831 6.10074 0.000159 0.004237 -0.001311 
407 4 17.2099 13.6702 8.39352 0.008444 0.000117 0.004887 
550 4 20.161 16.7462 7.55767 0.005442 0.012048 -0.003332 
551 4 21.3702 16.3684 8.38656 0.007488 5.6e-05 -0.004862 
795 3 18.6811 13.1072 6.78425 -0.001822 0.0023 0.005239 
796 4 19.0266 12.3851 7.30907 0.008766 0.010559 0.000663 
797 4 19.4404 13.442 6.30725 -0.006234 0.001187 0.003233 
946 4 20.9368 11.9117 9.56016 -0.001671 0.013827 0.004229 
975 3 19.0313 16.0463 10.3381 0.004858 0.002003 0.000234 
976 4 18.2033 16.419 10.0352 0.004303 -0.007144 -0.01679 
977 4 19.6849 16.3847 9.72612 0.017504 0.017657 0.004571 
1074 3 22.7352 15.4066 8.52343 0.00415 -0.008669 0.002539 
72 3 2.72611 20.1692 9.88346 0.004897 -0.000231 0.003079 
73 4 2.0489 19.6531 9.44615 -0.001034 -0.004843 -0.001315 
74 4 3.43218 20.2328 9.2403 0.005565 0.003421 -0.003601 