ITEM: TIMESTEP
0
ITEM: NUMBER OF ATOMS
96
ITEM: BOX BOUNDS pp pp pp
2.9236100000000000e+00 1.2773600000000000e+01
4.0306300000000004e+00 1.3880599999999999e+01
2.1372399999999998e+00 1.1987200000000000e+01
ITEM: ATOMS id type x y z vx vy vz
1 1 5.19535 13.7403 2.92345 -0.00135218 -0.000893258 0.0039783
2 2 5.17951 12.7967 3.34444 0.000493024 -0.00920835 -0.00171202
3 2 10.9355 13.6018 2.97914 -0.0555892 -7.39277e-05 0.00111135
4 1 3.0682 10.035 11.6676 0.000795943 -0.00115135 -0.00103998
5 2 11.9646 10.1567 11.5985 0.024455 0.00462259 0.025612
6 2 3.32724 9.07083 11.9062 -0.0104758 0.00903573 0.00815309
7 1 3.1962 7.45321 2.81434 0.000179904 0.00184502 0.00565507
8 2 12.0519 7.37442 2.91699 0.00368988 -0.0182489 0.0391175
9 2 8.92313 9.26214 7.04181 0.0020218 0.00332597 -0.030518
10 1 7.95869 9.37934 7.0112 -0.0040854 0.00243949 -0.00114293
11 2 7.11564 7.71734 6.8452 0.00505317 0.00954286 0.011242
12 2 7.67857 9.661 7.92622 -0.0365968 -0.00747333 0.0162033
13 1 6.75352 9.36767 4.01174 -3.57181e-05 0.00242901 0.000436491
14 2 5.94655 8.99953 4.45622 -0.0258194 -0.0110426 0.0236378
15 2 6.77427 8.68197 3.26537 -0.0151396 -0.00229862 0.00164146
16 1 9.67815 7.37134 10.7631 -0.00323205 0.00100875 -0.000564066
17 2 10.0359 7.38535 11.6588 0.036569 -0.000119352 0.00428765
18 2 8.74595 7.07307 10.8611 0.0189226 0.0110659 -0.013511
19 1 4.68106 6.46465 10.4254 0.00269234 -0.000305294 -0.00801471
20 2 4.26446 6.74869 11.2254 0.0368905 0.00117748 0.020134
21 2 4.17088 8.49002 9.16543 0.0108503 -0.0143875 0.00194607
22 1 10.0587 10.0691 11.2356 0.00015073 -0.00124956 0.00419392
23 2 9.99574 9.92196 2.39234 -0.0147656 -0.0250008 0.0188513
24 2 9.86824 9.2086 10.8307 -0.00632309 -0.0121761 0.00881738
25 1 4.33508 8.04261 5.42407 -0.00460212 -0.00145095 -0.000554422
26 2 4.10517 8.92458 5.75458 0.022289 -0.0215207 -0.0353121
27 2 3.78863 5.82935 4.86962 -0.0168165 0.000627884 -0.00300288
28 1 10.2767 7.04686 3.64163 0.00429843 0.00236326 -0.00471484
29 2 9.64488 6.43843 4.09945 0.0158194 -0.00474206 -0.00216322
30 2 9.82886 7.8906 3.78395 -0.0175202 -0.018166 -0.0050034
31 1 11.3493 11.0915 5.34963 -0.00790178 -0.00408525 0.00210666
32 2 10.9316 11.8692 5.00486 0.0120603 0.00597621 -0.00973551
33 2 12.2765 11.2839 5.11954 0.0102221 -0.0129658 -0.00928012
34 1 7.68725 4.8248 10.4564 -0.00383521 -0.00158217 0.00607532
35 2 8.01092 13.8024 10.1849 0.00864425 -0.0111215 -0.0123496
36 2 7.02333 4.64812 11.1063 -0.00592807 -0.00119082 0.0217511
37 1 8.45029 12.011 10.2021 0.00164725 0.000253056 -0.00544909
38 2 9.0095 12.2593 9.4447 0.0401017 -0.00797261 0.0142023
39 2 9.09845 11.4331 10.6807 -0.0246225 0.0177568 0.00587777
40 1 10.7052 13.8272 4.86884 -0.00425016 0.000469421 0.00605727
41 2 11.493 4.52817 4.73405 0.00382146 0.0123638 -0.00806625
42 2 9.92775 4.57641 5.01088 -0.0303402 -0.00160805 0.0151249
43 1 3.56089 4.9359 4.92971 0.00235773 -0.00226042 -0.00145981
44 2 3.59974 7.49457 3.7171 -0.0128292 0.0230844 -0.0350534
45 2 4.62859 4.39835 3.5254 -0.0135232 0.0278762 -0.0113414
46 1 9.9022 13.2754 8.31327 0.00185853 0.00196174 0.00143371
47 2 9.55589 13.0355 7.39574 -0.0052814 0.0377421 -0.00800657
48 2 10.7977 12.7932 8.2087 -0.00467664 -0.00966246 -0.0261054
49 1 10.678 5.98104 8.68425 -0.00119253 -0.000702367 -0.000615644
50 2 10.3538 5.15135 8.32065 -0.0286505 0.0256082 0.0228063
51 2 10.1599 6.18883 9.54865 0.00741301 0.00557471 0.0129549
52 1 9.4609 9.61804 4.02077 0.0044173 0.00284828 0.00325947
53 2 9.99438 9.95785 4.74732 0.00538778 -0.0134085 0.0150765
54 2 8.5474 9.91636 4.29363 -0.0127777 -0.00353891 -0.018118
55 1 4.7258 11.3037 3.71253 0.00209134 -0.000818001 -3.10503e-05
56 2 5.50563 10.7119 3.73522 0.00159467 0.0112274 -0.00807776
57 2 4.0126 10.9576 3.07636 -0.0147194 0.0335013 -0.00420219
58 1 6.8453 9.98232 9.40444 -0.00447152 -0.00428715 -0.00365796
59 2 5.69609 10.5759 7.01515 -0.0244996 -0.00119017 -0.00956876
60 2 7.26431 10.9027 9.49008 0.0236613 0.00267545 -0.00803153
61 1 6.07584 4.90728 8.17706 -9.18061e-05 -0.00207924 0.00409853
62 2 6.46724 4.95197 9.04557 0.00155292 -0.00548347 0.0036778
63 2 5.12223 4.79681 8.26904 -0.0106219 0.00415292 0.00093633
64 1 4.98507 11.1605 6.7564 0.00891207 0.00581294 -0.000490271
65 2 4.93092 11.0179 5.82126 0.0246447 0.00686164 0.0377085
66 2 4.09903 12.7429 7.40191 0.0159356 -0.00555425 -0.0126965
67 1 11.8219 10.4355 7.90032 -7.08214e-06 -0.0091481 -0.00590585
68 2 11.7749 10.6199 6.94228 0.0203655 0.00268928 0.00868256
69 2 12.7533 10.1601 8.08851 0.014724 0.000169602 -0.00217418
70 1 8.18949 5.25439 4.87156 0.00161082 -0.00287192 -0.00530123
71 2 7.7639 4.38478 5.1305 -0.00977363 -0.000716012 0.00673346
72 2 7.67599 5.99617 5.44868 -0.00703807 0.0215317 -0.00635296
73 1 10.3175 8.3084 7.31253 0.00555976 0.00128836 -0.00287403
74 2 10.5144 7.4281 7.69578 -0.00121595 0.00330526 0.0234063
75 2 10.9646 8.94694 7.74946 -0.0329309 1.53579e-05 0.000368276
76 1 3.53139 13.5425 10.5133 0.00738272 -0.00166658 -8.28121e-05
77 2 12.4236 13.6114 10.7961 0.0175249 -0.00982858 -0.0094779
78 2 4.37279 5.57739 10.3664 -0.0286503 -0.00406018 -0.0092663
79 1 4.14446 9.42539 9.26311 -0.00358053 -0.00434087 0.000618963
80 2 3.62923 9.68332 10.0703 -0.0103439 0.0325661 0.00534055
81 2 5.93149 10.1965 9.14778 0.0229799 0.00295507 -0.022012
82 1 7.05317 7.71809 11.3426 0.00564018 0.00394207 0.00119876
83 2 6.50186 7.01983 10.9855 0.00757282 -0.00577185 -0.0125344
84 2 7.18968 8.32394 10.5599 0.0224214 -0.00105755 -0.00429992
85 1 10.938 13.455 11.8874 -0.00382184 0.0106114 -0.00121675
86 2 10.0686 13.3595 11.6494 -0.0310908 0.00855534 -0.0345483
87 2 4.14092 13.4949 11.3034 -0.00746796 -0.00315836 -0.000788373
88 1 7.58458 12.9135 6.33346 0.00356832 0.000814487 -0.00246133
89 2 7.12273 12.0981 6.2071 -0.02195 -0.00631192 -0.0026616
90 2 7.32912 13.1621 7.24094 0.00889831 0.000743823 -0.0113872
91 1 6.69204 6.9265 6.42279 -0.00191055 0.00153827 0.00680191
92 2 5.10414 7.73415 5.93615 -0.0054006 -0.041007 0.0109207
93 2 6.36293 6.31427 7.15011 0.00117146 0.018377 0.00199186
94 1 3.57587 13.5329 7.66349 -0.00586645 -0.00194796 -0.000381128
95 2 3.53837 13.4791 8.65102 0.0306709 0.00115429 0.0125415
96 2 3.82264 4.70172 5.84723 0.0185063 -0.0365131 -0.012807
ITEM: TIMESTEP
1
ITEM: NUMBER OF ATOMS
96
ITEM: BOX BOUNDS pp pp pp
2.9236100000000000e+00 1.2773600000000000e+01
4.0306300000000004e+00 1.3880599999999999e+01
2.1372399999999998e+00 1.1987200000000000e+01
ITEM: ATOMS id type x y z vx vy vz
1 1 5.19467 13.7398 2.92541 -0.0013876 -0.000893836 0.00388316
2 2 5.18011 12.7926 3.34285 0.00169817 -0.00671645 -0.00447561
3 2 10.9076 13.6019 2.98072 -0.0560433 0.000351435 0.0049206
4 1 3.0687 10.0344 11.6671 0.00126495 -0.00124811 -0.00092354
5 2 11.9763 10.1583 11.6112 0.0210919 0.00196665 0.0252447
6 2 3.32061 9.07611 11.9105 -0.0157736 0.0115996 0.00892839
7 1 3.19625 7.45416 2.81717 -6.94177e-06 0.00194706 0.00559722
8 2 12.0551 7.36523 2.93719 0.00886872 -0.0184554 0.0413344
9 2 8.92488 9.26345 7.02647 0.00440204 0.00204323 -0.0303791
10 1 7.95654 9.38058 7.01064 -0.00452496 0.0025342 -0.00109407
11 2 7.11855 7.72219 6.85073 0.00647071 0.00970696 0.0106894
12 2 7.66001 9.65711 7.93455 -0.0369148 -0.00835283 0.0164398
13 1 6.75336 9.36875 4.01188 -0.000661001 0.00188101 0.00016529
14 2 5.9347 8.99463 4.46825 -0.0206103 -0.00809541 0.0239234
15 2 6.76748 8.68242 3.26699 -0.0119497 0.00412713 0.00481213
16 1 9.67653 7.37185 10.7628 -0.00315918 0.00104193 -0.000789015
17 2 10.0545 7.38483 11.6618 0.0370976 -0.00210513 0.00723919
18 2 8.75496 7.0787 10.8546 0.0163678 0.0111526 -0.0120947
19 1 4.68245 6.46452 10.4213 0.00281987 -0.000235307 -0.00816977
20 2 4.28251 6.75021 11.2364 0.0356147 0.00457471 0.0234162
21 2 4.17612 8.48181 9.16714 0.00994291 -0.0177896 0.005179
22 1 10.0588 10.0685 11.2378 0.00033275 -0.00123399 0.00453859
23 2 9.98804 9.90971 2.40071 -0.0158912 -0.0236789 0.0140688
24 2 9.86486 9.20216 10.835 -0.00706485 -0.0130517 0.00821431
25 1 4.33275 8.04189 5.42376 -0.0046704 -0.00151146 -0.000682
26 2 4.11671 8.91336 5.73707 0.0236399 -0.0220944 -0.0341346
27 2 3.78053 5.83133 4.86827 -0.0155364 0.00718294 -0.00215059
28 1 10.2788 7.04797 3.6393 0.00414701 0.00205976 -0.00461954
29 2 9.65338 6.43569 4.09788 0.0181534 -0.00637507 -0.00406985
30 2 9.82024 7.88258 3.78144 -0.0170248 -0.0136119 -0.00505159
31 1 11.3454 11.0894 5.35064 -0.00757477 -0.00418094 0.00192463
32 2 10.9369 11.8733 4.99997 0.00930238 0.010279 -0.0096701
33 2 12.2816 11.2772 5.11485 0.00950835 -0.014199 -0.00927574
34 1 7.68533 4.82405 10.4594 -0.0038531 -0.00145742 0.00596537
35 2 8.01537 13.7967 10.1788 0.00873306 -0.0108078 -0.0115631
36 2 7.01992 4.64729 11.1178 -0.0071933 -0.00217521 0.0237943
37 1 8.45113 12.0111 10.1994 0.00170937 0.00015129 -0.00542795
38 2 9.02951 12.2564 9.45027 0.0398236 -0.00351691 0.00805372
39 2 9.08565 11.4411 10.6849 -0.0261898 0.0137724 0.0112879
40 1 10.703 13.8274 4.87186 -0.00438954 0.00056591 0.00602994
41 2 11.4948 4.53448 4.73043 0.00283217 0.0125403 -0.0062656
42 2 9.91308 4.5754 5.01819 -0.0276693 -0.0027881 0.0139515
43 1 3.56206 4.93468 4.929 0.00232913 -0.00262916 -0.00138122
44 2 3.59247 7.50629 3.69911 -0.0153025 0.0238114 -0.0353709
45 2 4.62161 4.41273 3.51988 -0.014014 0.0288729 -0.0108889
46 1 9.90324 13.2762 8.31381 0.00230453 0.00141497 0.000730179
47 2 9.55325 13.0552 7.3934 -0.00529585 0.0409237 -0.00131362
48 2 10.7936 12.7895 8.19631 -0.0115194 -0.00510694 -0.0233805
49 1 10.6774 5.98078 8.68402 -0.00120986 -0.000294376 -0.000270846
50 2 10.339 5.1633 8.33218 -0.0306681 0.021467 0.0227968
51 2 10.1645 6.19132 9.55373 0.0108852 0.00454459 0.00736865
52 1 9.46303 9.61952 4.02243 0.00411364 0.00305539 0.00336045
53 2 9.99811 9.95118 4.75513 0.00921978 -0.0131833 0.0160679
54 2 8.54098 9.91374 4.28382 -0.0125172 -0.00689061 -0.0209829
55 1 4.72675 11.3032 3.71256 0.00168581 -0.00101157 0.000151002
56 2 5.50636 10.7171 3.73048 0.001447 0.00947252 -0.0109731
57 2 4.00663 10.9743 3.07457 -0.0089716 0.0332529 -0.00291678
58 1 6.8431 9.98027 9.40257 -0.00427269 -0.00391572 -0.00381429
59 2 5.6839 10.5752 7.01035 -0.0233679 -0.00212526 -0.00902913
60 2 7.27639 10.9031 9.48669 0.0243571 -0.00133562 -0.00554942
61 1 6.0758 4.90624 8.17901 -7.35209e-05 -0.00207617 0.00370861
62 2 6.46838 4.94943 9.04864 0.0029012 -0.00469291 0.00849449
63 2 5.11654 4.79865 8.26966 -0.0116345 0.00323897 0.00156505
64 1 4.98954 11.1634 6.75618 0.00891465 0.00583306 -0.000304117
65 2 4.94325 11.0215 5.83963 0.0243584 0.00722788 0.0338254
66 2 4.10665 12.7404 7.39551 0.0141095 -0.0038134 -0.0126538
67 1 11.8219 10.4309 7.89744 6.78228e-05 -0.00930302 -0.00559597
68 2 11.785 10.6215 6.94635 0.020005 0.00369582 0.0071669
69 2 12.7606 10.1603 8.08767 0.0139558 0.000536026 -0.00109421
70 1 8.19021 5.25303 4.869 0.00126829 -0.00254815 -0.00491139
71 2 7.75956 4.38548 5.13392 -0.00751322 0.00367885 0.00689012
72 2 7.67365 6.00495 5.44421 -0.00206808 0.0131362 -0.0117452
73 1 10.3203 8.30906 7.31109 0.00577882 0.00130563 -0.00289882
74 2 10.5136 7.42897 7.70789 -0.00203822 0.000346012 0.0249056
75 2 10.948 8.94736 7.74942 -0.0328381 0.00215778 -0.000165156
76 1 3.53507 13.5417 10.5132 0.00737544 -0.00159487 -0.000160889
77 2 12.4338 13.6062 10.7919 0.022453 -0.0109087 -0.0072366
78 2 4.35825 5.57401 10.3612 -0.0293072 -0.00856939 -0.0112875
79 1 4.14268 9.42331 9.26334 -0.00354414 -0.00398722 0.000307925
80 2 3.62407 9.69924 10.0731 -0.009948 0.0306549 0.00546108
81 2 5.94248 10.1972 9.13693 0.0202728 0.000102973 -0.0215583
82 1 7.05603 7.72011 11.3431 0.00578962 0.00412595 0.000944979
83 2 6.5052 7.01671 10.9791 0.00606909 -0.0063118 -0.0127892
84 2 7.20045 8.32303 10.5589 0.020596 -0.00263537 0.000291208
85 1 10.9362 13.4603 11.8868 -0.0033383 0.0106467 -0.00133979
86 2 10.0506 13.3635 11.6313 -0.0388398 0.00753873 -0.037348
87 2 4.13628 13.4934 11.3031 -0.0107039 -0.00275959 -0.00011435
88 1 7.58639 12.9139 6.33227 0.00367073 0.000773364 -0.00234337
89 2 7.1113 12.0947 6.20583 -0.0233565 -0.00666888 -0.00232482
90 2 7.33345 13.1627 7.23448 0.00833587 0.00159618 -0.014074
91 1 6.69106 6.92727 6.4262 -0.00198108 0.00157537 0.00680818
92 2 5.10139 7.71385 5.94157 -0.00605084 -0.0398124 0.0104963
93 2 6.36396 6.32345 7.15118 0.0027835 0.0179473 0.00262836
94 1 3.57298 13.5319 7.66334 -0.00566508 -0.00205525 -0.000194637
95 2 3.55351 13.4798 8.65677 0.0298234 0.00146075 0.00994381
96 2 3.8315 4.68346 5.84035 0.0169482 -0.0362544 -0.0146842
ITEM: TIMESTEP
2
ITEM: NUMBER OF ATOMS
96
ITEM: BOX BOUNDS pp pp pp
2.9236100000000000e+00 1.2773600000000000e+01
4.0306300000000004e+00 1.3880599999999999e+01
2.1372399999999998e+00 1.1987200000000000e+01
ITEM: ATOMS id type x y z vx vy vz
1 1 5.19396 13.7394 2.92733 -0.00144117 -0.000836861 0.00379684
2 2 5.18121 12.79 3.33996 0.00248699 -0.0034856 -0.00683148
3 2 10.8795 13.6022 2.98406 -0.0563234 0.000651768 0.00790727
4 1 3.06946 10.0338 11.6667 0.0018212 -0.00129431 -0.00082768
5 2 11.9857 10.1587 11.6237 0.0157327 -0.000240214 0.0246886
6 2 3.31147 9.08243 11.9151 -0.0204467 0.0131548 0.00986482
7 1 3.19619 7.45516 2.81994 -0.000265316 0.0020155 0.00537494
8 2 12.0608 7.35596 2.95832 0.0133613 -0.0185964 0.0428526
9 2 8.92753 9.26418 7.01143 0.00553211 0.00102385 -0.0293021
10 1 7.95417 9.38187 7.01011 -0.00496745 0.00262362 -0.00100909
11 2 7.12211 7.72705 6.85589 0.0076418 0.00952255 0.00973324
12 2 7.64166 9.65265 7.94266 -0.0358076 -0.009701 0.0153719
13 1 6.75286 9.36955 4.01191 -0.00139064 0.00129696 -2.85512e-05
14 2 5.92594 8.99143 4.48014 -0.0137026 -0.00437874 0.0231641
15 2 6.76232 8.6861 3.27018 -0.00868066 0.0103708 0.00772935
16 1 9.67499 7.37238 10.7623 -0.00291847 0.00112189 -0.000965745
17 2 10.073 7.38324 11.666 0.036369 -0.00435508 0.00881009
18 2 8.76232 7.08422 10.849 0.0124838 0.0107359 -0.0098802
19 1 4.68388 6.46441 10.4172 0.00287622 -0.000233456 -0.00824863
20 2 4.30007 6.75326 11.2488 0.0349356 0.00721184 0.025243
21 2 4.18082 8.47223 9.17061 0.00873008 -0.0197814 0.00895301
22 1 10.059 10.0679 11.2401 0.000476345 -0.0013174 0.00494081
23 2 9.97985 9.89828 2.40641 -0.0167379 -0.021737 0.00841881
24 2 9.86118 9.19555 10.8389 -0.00753939 -0.0129309 0.0076027
25 1 4.33041 8.0411 5.42339 -0.00464172 -0.00177227 -0.000837973
26 2 4.12881 8.90249 5.72045 0.0245203 -0.0200798 -0.0317844
27 2 3.77309 5.83653 4.86747 -0.0142565 0.0132119 -0.000786054
28 1 10.2808 7.04892 3.63701 0.00400267 0.00175284 -0.00453584
29 2 9.66303 6.43205 4.09538 0.0203668 -0.00829102 -0.00587268
30 2 9.81184 7.87699 3.7789 -0.0166282 -0.00866938 -0.00512064
31 1 11.3417 11.0873 5.35155 -0.00719371 -0.00420804 0.00169256
32 2 10.9409 11.8795 4.99519 0.00676346 0.0138627 -0.00924678
33 2 12.286 11.2697 5.11026 0.0075706 -0.0158242 -0.00888364
34 1 7.6834 4.82334 10.4624 -0.00389013 -0.00142136 0.00586874
35 2 8.01965 13.7916 10.1733 0.00798926 -0.00919894 -0.0100157
36 2 7.01614 4.64594 11.1301 -0.00737257 -0.00325608 0.0247437
37 1 8.452 12.0112 10.1967 0.00174656 0.000117066 -0.00547762
38 2 9.04932 12.2558 9.45275 0.0391903 0.000830725 0.00215146
39 2 9.07226 11.4469 10.692 -0.0270425 0.0089237 0.0175024
40 1 10.7008 13.8278 4.87487 -0.00453343 0.000737759 0.00599304
41 2 11.4958 4.54071 4.72778 0.000644714 0.012095 -0.00421273
42 2 9.90008 4.57362 5.02483 -0.0238196 -0.00455587 0.0124986
43 1 3.56322 4.93327 4.92833 0.00229451 -0.00299841 -0.00134476
44 2 3.58444 7.51838 3.68173 -0.0157906 0.0246308 -0.0325927
45 2 4.61458 4.42722 3.51451 -0.0137583 0.0283536 -0.0107595
46 1 9.9045 13.2768 8.314 0.00272334 0.000880784 3.57098e-05
47 2 9.55059 13.0764 7.39443 -0.00539901 0.0438094 0.00519161
48 2 10.7862 12.7881 8.18532 -0.0179324 -0.000681632 -0.0205598
49 1 10.6768 5.98075 8.68398 -0.00120776 0.000179748 0.000118228
50 2 10.3231 5.17282 8.34345 -0.0329276 0.0161234 0.0218399
51 2 10.1708 6.19337 9.55602 0.0143874 0.00388933 0.00203555
52 1 9.46501 9.6211 4.02413 0.00380982 0.00325035 0.00345865
53 2 10.0036 9.94467 4.76339 0.0123201 -0.0128344 0.0167719
54 2 8.53488 9.90947 4.27265 -0.0115503 -0.010132 -0.0235162
55 1 4.72749 11.3027 3.71268 0.00124982 -0.0011592 0.000345767
56 2 5.50708 10.7214 3.72425 0.00155878 0.00722951 -0.0140311
57 2 4.00363 10.9909 3.07344 -0.0029727 0.0326332 -0.00166666
58 1 6.84103 9.9784 9.40063 -0.00394873 -0.00353532 -0.00395347
59 2 5.67272 10.5738 7.00612 -0.0203453 -0.00455682 -0.00712281
60 2 7.28867 10.9014 9.48453 0.0244467 -0.00592001 -0.00313457
61 1 6.07577 4.9052 8.18077 -9.8026e-05 -0.00207891 0.00335282
62 2 6.47014 4.94728 9.05406 0.00393742 -0.00397364 0.012869
63 2 5.1106 4.80005 8.27061 -0.0116199 0.00241094 0.00219805
64 1 4.99398 11.1663 6.7561 0.00884312 0.00595729 5.42914e-05
65 2 4.95528 11.0251 5.85509 0.0233809 0.00739426 0.0259419
66 2 4.11314 12.7391 7.38926 0.0115008 -0.00100773 -0.0121766
67 1 11.822 10.4262 7.89472 0.000218579 -0.00945519 -0.00523758
68 2 11.7949 10.6236 6.94945 0.0193836 0.00489439 0.00486657
69 2 12.7673 10.1606 8.08742 0.0124747 0.000921881 0.000143826
70 1 8.19076 5.25184 4.86665 0.00090345 -0.00219558 -0.0044914
71 2 7.75639 4.38846 5.13739 -0.00518547 0.00812995 0.00696937
72 2 7.67392 6.00931 5.43693 0.00322268 0.00416263 -0.0173715
73 1 10.3233 8.30971 7.30963 0.00590825 0.00122502 -0.00296202
74 2 10.5124 7.42845 7.72069 -0.00295455 -0.00216254 0.0261346
75 2 10.9318 8.9491 7.74929 -0.0316115 0.00520338 3.81225e-05
76 1 3.53877 13.5409 10.5131 0.00741259 -0.0015229 -0.000302353
77 2 12.4461 13.6005 10.7889 0.0257641 -0.0118402 -0.00476017
78 2 4.34348 5.56882 10.3551 -0.0294963 -0.0111814 -0.012937
79 1 4.14092 9.4214 9.26342 -0.00353993 -0.00366097 3.25707e-05
80 2 3.61928 9.71397 10.0758 -0.00884874 0.0278365 0.00453602
81 2 5.95176 10.1966 9.12622 0.016302 -0.00222048 -0.021429
82 1 7.05896 7.72222 11.3435 0.00589612 0.00425926 0.000665512
83 2 6.50793 7.01352 10.9727 0.00516863 -0.00603796 -0.012633
84 2 7.21028 8.3213 10.5602 0.0186933 -0.0042414 0.00493907
85 1 10.9347 13.4656 11.8861 -0.00312124 0.0106645 -0.00145762
86 2 10.0298 13.367 11.6121 -0.0425347 0.00692839 -0.0392571
87 2 4.13022 13.4921 11.3033 -0.0130651 -0.00245101 0.00122745
88 1 7.58825 12.9143 6.33112 0.00373408 0.000634507 -0.00228686
89 2 7.09937 12.0914 6.20478 -0.0239446 -0.00566303 -0.00181625
90 2 7.33746 13.1637 7.22687 0.00755345 0.00269832 -0.0159294
91 1 6.69006 6.92808 6.4296 -0.00201081 0.00168552 0.00678718
92 2 5.09809 7.69434 5.94665 -0.00755095 -0.0379329 0.00954726
93 2 6.36571 6.33222 7.15274 0.00406319 0.0167953 0.00389354
94 1 3.5702 13.5308 7.6633 -0.00540371 -0.0022274 1.90082e-05
95 2 3.56819 13.4806 8.66096 0.0288437 0.00176703 0.00643547
96 2 3.83959 4.66547 5.83255 0.0154413 -0.035442 -0.0164797
ITEM: TIMESTEP
3
ITEM: NUMBER OF ATOMS
96
ITEM: BOX BOUNDS pp pp pp
2.9236100000000000e+00 1.2773600000000000e+01
4.0306300000000004e+00 1.3880599999999999e+01
2.1372399999999998e+00 1.1987200000000000e+01
ITEM: ATOMS id type x y z vx vy vz
1 1 5.19323 13.739 2.92921 -0.00151126 -0.000713599 0.00371593
2 2 5.1826 12.7891 3.33601 0.00288156 0.000247507 -0.00872024
3 2 10.8513 13.6025 2.98863 -0.0563412 0.00078165 0.0096984
4 1 3.07052 10.0331 11.6663 0.00242857 -0.00128439 -0.000757472
5 2 11.992 10.1581 11.6359 0.00884668 -0.00194352 0.0239787
6 2 3.30016 9.08926 11.9203 -0.0243673 0.0135912 0.0109807
7 1 3.19599 7.45618 2.82255 -0.000581472 0.00204503 0.00499206
8 2 12.0685 7.34664 2.98004 0.0168547 -0.0187372 0.0436447
9 2 8.93041 9.26447 6.99716 0.0053362 0.000209708 -0.027352
10 1 7.95157 9.38321 7.00963 -0.00539654 0.0027031 -0.000893097
11 2 7.12619 7.73172 6.86047 0.00850672 0.0089516 0.00836374
12 2 7.6242 9.64741 7.94992 -0.0333982 -0.0114259 0.0131255
13 1 6.75197 9.37005 4.01185 -0.00218337 0.000720496 -0.000137662
14 2 5.92099 8.99025 4.49142 -0.00564551 -0.000212832 0.0215741
15 2 6.7588 8.6928 3.27472 -0.00542921 0.0160336 0.0100703
16 1 9.67361 7.37297 10.7618 -0.00252809 0.00124288 -0.00107898
17 2 10.0908 7.38047 11.6707 0.0343626 -0.00682244 0.0089125
18 2 8.76744 7.08943 10.8447 0.00757489 0.00991627 -0.00698577
19 1 4.68532 6.46429 10.4131 0.00285307 -0.000302387 -0.00823842
20 2 4.31745 6.75742 11.2617 0.0348467 0.00894954 0.025347
21 2 4.18485 8.46203 9.17609 0.00725878 -0.0202737 0.0131655
22 1 10.0593 10.0672 11.2427 0.000580117 -0.00148881 0.00537089
23 2 9.9713 9.88797 2.40913 -0.0173155 -0.019235 0.00237214
24 2 9.85732 9.18923 10.8426 -0.00775969 -0.011921 0.00692953
25 1 4.32811 8.04012 5.42293 -0.00452948 -0.00222619 -0.0010156
26 2 4.14123 8.89328 5.70528 0.0249775 -0.015533 -0.028391
27 2 3.76628 5.84454 4.86748 -0.0130855 0.0181425 0.00110447
28 1 10.2828 7.04972 3.63476 0.0038619 0.00146479 -0.00446657
29 2 9.67375 6.4274 4.09201 0.0223807 -0.0103964 -0.0075376
30 2 9.80361 7.87391 3.77632 -0.0162322 -0.00372826 -0.00519647
31 1 11.3382 11.0852 5.35234 -0.00678046 -0.00415655 0.00140792
32 2 10.9437 11.8872 4.99073 0.00460236 0.0164709 -0.00834093
33 2 12.2892 11.2613 5.10597 0.00459743 -0.0177485 -0.00817181
34 1 7.68144 4.82263 10.4653 -0.00395392 -0.00146444 0.00578921
35 2 8.02336 13.7875 10.1688 0.00651291 -0.00649806 -0.00778214
36 2 7.01254 4.64404 11.1426 -0.00647622 -0.00438439 0.0245851
37 1 8.45288 12.0112 10.1939 0.00178533 0.000141821 -0.00560236
38 2 9.0687 12.2572 9.45243 0.0380251 0.00473479 -0.00288334
39 2 9.0586 11.45 10.7024 -0.0273764 0.00363719 0.0239662
40 1 10.6985 13.8282 4.87786 -0.00467607 0.000963469 0.00594218
41 2 11.4955 4.54657 4.72622 -0.0024917 0.0111297 -0.00194812
42 2 9.88926 4.57084 5.03069 -0.0190714 -0.00671907 0.0108336
43 1 3.56436 4.93168 4.92766 0.00226089 -0.00332968 -0.00135641
44 2 3.57668 7.53092 3.66652 -0.0141722 0.0256573 -0.0267835
45 2 4.60785 4.44108 3.50912 -0.0127953 0.0263937 -0.0109059
46 1 9.90597 13.2771 8.31385 0.00308833 0.000387552 -0.000605807
47 2 9.54785 13.099 7.39859 -0.00569663 0.0462523 0.0110099
48 2 10.7757 12.7888 8.17575 -0.0233962 0.00327708 -0.0178168
49 1 10.6762 5.98096 8.68414 -0.0011833 0.000684136 0.000512756
50 2 10.3061 5.17942 8.35402 -0.0352686 0.0100762 0.0201306
51 2 10.1788 6.19521 9.55576 0.0177062 0.003708 -0.00265043
52 1 9.46684 9.62277 4.02588 0.00352361 0.00342859 0.0035559
53 2 10.0104 9.93835 4.7719 0.0144999 -0.0123951 0.0170523
54 2 8.52943 9.90361 4.26031 -0.00994635 -0.0131883 -0.0255739
55 1 4.728 11.3021 3.7129 0.000805305 -0.00126394 0.000562079
56 2 5.50791 10.7244 3.71645 0.00186794 0.00463817 -0.0172031
57 2 4.00365 11.007 3.07291 0.00298218 0.0316128 -0.000628098
58 1 6.83915 9.97673 9.39862 -0.00352315 -0.00316638 -0.00407602
59 2 5.66355 10.5707 7.00323 -0.0154214 -0.00853636 -0.0035137
60 2 7.30084 10.8972 9.48356 0.023983 -0.0107631 -0.000803771
61 1 6.07571 4.90416 8.18236 -0.00015692 -0.00208598 0.00305496
62 2 6.47232 4.94546 9.06151 0.00453221 -0.00334058 0.0164555
63 2 5.10492 4.80106 8.27186 -0.0105417 0.00167458 0.00282379
64 1 4.99838 11.1694 6.75623 0.00870757 0.00617244 0.000554432
65 2 4.96663 11.0289 5.86558 0.02154 0.00762761 0.01418
66 2 4.11815 12.7394 7.38334 0.00829513 0.00256439 -0.0113627
67 1 11.8221 10.4214 7.8922 0.000434808 -0.00960208 -0.00484521
68 2 11.8044 10.6264 6.95122 0.018537 0.00624908 0.0020006
69 2 12.773 10.1612 8.08782 0.0103762 0.00129031 0.00152097
70 1 8.19112 5.25084 4.86451 0.000547386 -0.001826 -0.00407514
71 2 7.75437 4.39361 5.14089 -0.00295571 0.0121514 0.007021
72 2 7.67688 6.00911 5.42684 0.00850129 -0.00472852 -0.0228626
73 1 10.3263 8.31029 7.30813 0.00595786 0.00104526 -0.00305433
74 2 10.5106 7.42681 7.73402 -0.00395713 -0.00397287 0.0270189
75 2 10.9164 8.95256 7.74945 -0.0294334 0.00896675 0.000912777
76 1 3.54249 13.5402 10.5129 0.00750575 -0.00144914 -0.000504509
77 2 12.4595 13.5944 10.7871 0.027164 -0.012613 -0.0020886
78 2 4.32875 5.56283 10.3483 -0.0291107 -0.0117236 -0.0141318
79 1 4.13914 9.41965 9.26337 -0.00356507 -0.00337536 -0.000209059
80 2 3.61522 9.72708 10.0777 -0.00711569 0.0242198 0.00270678
81 2 5.95878 10.195 9.1155 0.0113539 -0.00398717 -0.0215651
82 1 7.06193 7.72437 11.3438 0.00595871 0.00432826 0.000378589
83 2 6.51036 7.01067 10.9665 0.00484927 -0.00497788 -0.0120671
84 2 7.21914 8.31879 10.5638 0.0167793 -0.00564495 0.00932832
85 1 10.9331 13.471 11.8853 -0.00318307 0.010667 -0.00155299
86 2 10.0081 13.3704 11.5921 -0.042074 0.00673291 -0.0401279
87 2 4.12321 13.491 11.3043 -0.014443 -0.00224714 0.00323019
88 1 7.59013 12.9145 6.32998 0.00375961 0.000400438 -0.00229569
89 2 7.08736 12.089 6.20401 -0.0237256 -0.00339206 -0.00115765
90 2 7.34101 13.1654 7.21855 0.0065299 0.00408349 -0.0168416
91 1 6.68905 6.92895 6.43298 -0.00200449 0.00186915 0.00675013
92 2 5.09384 7.67592 5.95112 -0.00970618 -0.0354557 0.00813525
93 2 6.36802 6.34024 7.15508 0.00503742 0.0150271 0.00570042
94 1 3.56758 13.5297 7.66336 -0.00509229 -0.00244525 0.00024762
95 2 3.58235 13.4815 8.6632 0.0276976 0.00206054 0.00227673
96 2 3.84694 4.64802 5.82387 0.0140047 -0.0341068 -0.018118
ITEM: TIMESTEP
4
ITEM: NUMBER OF ATOMS
96
ITEM: BOX BOUNDS pp pp pp
2.9236100000000000e+00 1.2773600000000000e+01
4.0306300000000004e+00 1.3880599999999999e+01
2.1372399999999998e+00 1.1987200000000000e+01
ITEM: ATOMS id type x y z vx vy vz
1 1 5.19245 13.7387 2.93105 -0.001593 -0.000519325 0.00363341
2 2 5.18409 12.7902 3.33124 0.00291924 0.00419382 -0.0100874
3 2 10.8231 13.6029 2.99376 -0.0559878 0.000731178 0.0100636
4 1 3.07189 10.0325 11.6659 0.00304229 -0.00121707 -0.000714363
5 2 11.9945 10.1567 11.6477 0.00107824 -0.0031262 0.0231371
6 2 3.2871 9.09602 11.9261 -0.0274547 0.0128846 0.0122781
7 1 3.19561 7.4572 2.82493 -0.000936259 0.00203416 0.00447357
8 2 12.0776 7.33723 3.00197 0.0191454 -0.018944 0.0437283
9 2 8.93287 9.26439 6.98408 0.00388183 -0.000470228 -0.0246275
10 1 7.94877 9.38458 7.00921 -0.00580055 0.00276827 -0.000756104
11 2 7.13062 7.736 6.86425 0.00901846 0.00797239 0.00659188
12 2 7.60826 9.64122 7.95579 -0.0298745 -0.0134103 0.00992037
13 1 6.75068 9.37027 4.01177 -0.00299781 0.000193913 -0.000157486
14 2 5.92029 8.99122 4.50172 0.00299799 0.00407882 0.0193901
15 2 6.75689 8.70213 3.28025 -0.0022964 0.0207411 0.0115361
16 1 9.67246 7.37362 10.7612 -0.00201759 0.00139606 -0.00112139
17 2 10.1074 7.37642 11.675 0.0311343 -0.00944653 0.00758832
18 2 8.76989 7.09414 10.842 0.00203468 0.00880824 -0.00355108
19 1 4.68673 6.46411 10.409 0.00275222 -0.00043621 -0.00813743
20 2 4.33492 6.76221 11.2742 0.0352554 0.00973063 0.0236508
21 2 4.18808 8.45196 9.18377 0.00558265 -0.0193198 0.017696
22 1 10.0596 10.0664 11.2455 0.000644956 -0.00173051 0.00579868
23 2 9.96253 9.87905 2.40878 -0.0176467 -0.0162627 -0.00358102
24 2 9.85342 9.18363 10.8458 -0.00775179 -0.0101948 0.00612465
25 1 4.32588 8.03887 5.42237 -0.00435465 -0.00284629 -0.00120613
26 2 4.15379 8.88695 5.69205 0.0251319 -0.00880445 -0.0241737
27 2 3.76001 5.85468 4.86857 -0.0120948 0.0215345 0.00349824
28 1 10.2847 7.05038 3.63254 0.00372009 0.0012162 -0.00441324
29 2 9.68541 6.42166 4.08784 0.0241304 -0.0125828 -0.00904269
30 2 9.7956 7.87326 3.7737 -0.0157233 0.000833232 -0.00526523
31 1 11.3349 11.0832 5.35296 -0.00635688 -0.00402375 0.00107302
32 2 10.9455 11.8959 4.98685 0.00291883 0.0179486 -0.00688123
33 2 12.2906 11.252 5.10209 0.000847435 -0.0198665 -0.00723178
34 1 7.67944 4.82188 10.4682 -0.00404901 -0.0015671 0.00572896
35 2 8.02617 13.7851 10.1656 0.00445998 -0.00300902 -0.00499407
36 2 7.00966 4.64156 11.1547 -0.00461455 -0.00551898 0.023404
37 1 8.45378 12.0113 10.1911 0.00185113 0.000209293 -0.0057965
38 2 9.08735 12.2605 9.44987 0.0361726 0.00790495 -0.00653824
39 2 9.04488 11.4505 10.716 -0.0274137 -0.00162138 0.030074
40 1 10.6961 13.8287 4.88081 -0.00481253 0.00121768 0.00587503
41 2 11.4933 4.55184 4.72584 -0.00626252 0.0097921 0.000466832
42 2 9.88101 4.5669 5.03567 -0.01375 -0.00906503 0.00904164
43 1 3.56548 4.92994 4.92697 0.00223284 -0.00359142 -0.00141947
44 2 3.57027 7.54404 3.65495 -0.010535 0.0269854 -0.0183606
45 2 4.60178 4.45362 3.50361 -0.0112352 0.0231725 -0.011232
46 1 9.90759 13.2772 8.31339 0.00337561 -3.78235e-05 -0.00115278
47 2 9.5449 13.1227 7.40544 -0.00629675 0.0481443 0.0156789
48 2 10.7628 12.7914 8.1675 -0.0274179 0.00644404 -0.0153389
49 1 10.6756 5.98143 8.68449 -0.00113892 0.00117896 0.000874426
50 2 10.2879 5.18289 8.36358 -0.0374783 0.00390574 0.0179226
51 2 10.1885 6.19708 9.55337 0.0206594 0.00406462 -0.00635655
52 1 9.46854 9.62452 4.02769 0.00327078 0.00358489 0.00365291
53 2 10.0181 9.93227 4.78044 0.0156358 -0.0118912 0.0168182
54 2 8.52494 9.89628 4.24707 -0.00780885 -0.0159892 -0.0270343
55 1 4.72829 11.3014 3.71324 0.000376119 -0.00133056 0.000809237
56 2 5.50894 10.726 3.70704 0.002275 0.0018579 -0.0204433
57 2 4.00661 11.0225 3.07282 0.00860208 0.0301675 1.86894e-05
58 1 6.8375 9.97524 9.39655 -0.00302757 -0.00282659 -0.00418408
59 2 5.6573 10.5652 7.00261 -0.00914638 -0.0136707 0.00159804
60 2 7.31265 10.8906 9.48373 0.023037 -0.0155534 0.00142153
61 1 6.07561 4.90312 8.18382 -0.000238585 -0.00209552 0.00283262
62 2 6.47467 4.94394 9.07052 0.00460027 -0.00280071 0.0189929
63 2 5.10005 4.80172 8.27343 -0.00846228 0.00103049 0.00343559
64 1 5.00269 11.1725 6.75665 0.00853572 0.00644141 0.00113403
65 2 4.97682 11.0328 5.86927 0.0189425 0.00813759 -0.00031159
66 2 4.12143 12.7417 7.37789 0.00473205 0.00654098 -0.0103469
67 1 11.8224 10.4166 7.88988 0.000702872 -0.00973978 -0.00443644
68 2 11.8134 10.6298 6.95145 0.0175085 0.00770212 -0.0011541
69 2 2.92764 10.1619 8.08894 0.00778859 0.00160265 0.00300636
70 1 8.19131 5.25002 4.86257 0.000230154 -0.00145354 -0.00369616
71 2 7.75343 4.40061 5.14441 -0.000980011 0.0152963 0.0070971
72 2 7.68242 6.00458 5.41407 0.0134307 -0.0128621 -0.0278608
73 1 10.3292 8.31075 7.30658 0.00594192 0.000773545 -0.00316311
74 2 10.5084 7.42447 7.7477 -0.0050276 -0.00488951 0.0274954
75 2 10.9023 8.95806 7.75021 -0.0265524 0.0131796 0.00232875
76 1 3.54627 13.5395 10.5126 0.00766036 -0.00137244 -0.000756797
77 2 12.4732 13.5879 10.7868 0.0265374 -0.0132314 0.000700061
78 2 4.31437 5.5571 10.341 -0.0281086 -0.0102396 -0.0148212
79 1 4.13735 9.41803 9.26321 -0.00361289 -0.00313771 -0.000422948