ITEM: TIMESTEP
0
ITEM: NUMBER OF ATOMS
96
ITEM: BOX BOUNDS pp pp pp
2.92361 12.7736
4.03063 13.8806
2.13724 11.9872
ITEM: ATOMS id type x y z vx vy vz
1 1 5.19602 13.7407 2.92144 -0.00133305 -0.000848787 0.00408207
2 2 5.17962 12.8018 3.34456 -0.00113209 -0.0107874 0.00139049
3 2 10.9632 13.6019 2.97961 -0.0549872 -0.00054713 -0.00300795
4 1 3.06791 10.0355 11.6682 0.000439791 -0.00101296 -0.00116898
5 2 11.9518 10.1537 11.5856 0.0255552 0.00763868 0.0257516
6 2 3.33108 9.06707 11.9023 -0.00472118 0.00564589 0.00750826
7 1 3.19607 7.45231 2.81152 0.000285688 0.00171722 0.00556258
8 2 12.0514 7.38348 2.89807 -0.00177891 -0.0179202 0.0362675
9 2 8.92286 9.26012 7.05699 -0.00138857 0.00490584 -0.0296959
10 1 7.96063 9.37815 7.01178 -0.00366817 0.00234387 -0.00115633
11 2 7.1135 7.71265 6.83949 0.00345281 0.00907697 0.0114174
12 2 7.6966 9.66458 7.91835 -0.0348146 -0.00711595 0.0146511
13 1 6.75339 9.36632 4.01145 0.000447105 0.00289855 0.000774878
14 2 5.96052 9.00568 4.44462 -0.0288294 -0.0129255 0.0221247
15 2 6.78262 8.68472 3.26535 -0.0181693 -0.00850175 -0.00144263
16 1 9.67976 7.37084 10.7633 -0.00313139 0.00102434 -0.000313582
17 2 10.0179 7.38495 11.6575 0.034877 0.00157379 0.000178561
18 2 8.73603 7.06763 10.8681 0.0199555 0.0103964 -0.0140442
19 1 4.67976 6.46483 10.4294 0.00251271 -0.000430829 -0.0078066
20 2 4.24562 6.74903 11.2163 0.038659 -0.00272226 0.0158659
21 2 4.16527 8.4962 9.16519 0.0114123 -0.00981504 -0.00066963
22 1 10.0587 10.0698 11.2336 -6.63789e-05 -0.00136572 0.00393414
23 2 10.0028 9.93471 2.38186 -0.0133626 -0.0256776 0.0223519
24 2 9.87118 9.21434 10.8262 -0.00531962 -0.0102911 0.00943262
25 1 4.33735 8.04334 5.42432 -0.00443258 -0.00158088 -0.000460137
26 2 4.09442 8.93488 5.77238 0.0204923 -0.0185462 -0.0352806
27 2 3.79735 5.8307 4.87127 -0.0179603 -0.00581383 -0.00338788
28 1 10.2745 7.04561 3.64402 0.00445762 0.0026417 -0.00481725
29 2 9.63756 6.44043 4.10004 0.0134602 -0.00346041 -0.000202149
30 2 9.83776 7.90075 3.78644 -0.0181793 -0.0219733 -0.00499262
31 1 11.3534 11.0935 5.34853 -0.0081548 -0.00393774 0.0022457
32 2 10.9249 11.8674 5.00971 0.0148211 0.00129673 -0.0096095
33 2 12.2714 11.2901 5.12413 0.00962117 -0.0121962 -0.00885898
34 1 7.68916 4.82564 10.4533 -0.0038247 -0.00179509 0.00619233
35 2 8.00673 13.8079 10.1912 0.0076874 -0.010059 -0.0123629
36 2 7.02584 4.64848 11.0961 -0.00368278 -0.000360028 0.01874
37 1 8.44949 12.0109 10.2048 0.00153836 0.000422073 -0.0055282
38 2 8.98941 12.2644 9.43608 0.0401892 -0.0121879 0.0199447
39 2 9.11027 11.4234 10.679 -0.0222079 0.0205407 0.0017161
40 1 10.7073 13.8269 4.86581 -0.00412206 0.000463554 0.00608099
41 2 11.491 4.52211 4.7385 0.00346033 0.0115275 -0.00960037
42 2 9.94343 4.577 5.00306 -0.0316177 -0.00116988 0.015976
43 1 3.55971 4.93694 4.93046 0.00237161 -0.00193352 -0.0015722
44 2 3.6053 7.48321 3.73416 -0.00864988 0.0223433 -0.0318732
45 2 4.63514 4.38485 3.53122 -0.0123262 0.025407 -0.0121047
46 1 9.90139 13.2743 8.31238 0.00141352 0.00249186 0.00210347
47 2 9.55853 13.0175 7.40141 -0.0052537 0.0344405 -0.0143795
48 2 10.7983 12.7992 8.22242 0.00206397 -0.0140124 -0.0285862
49 1 10.6786 5.98149 8.68464 -0.00116394 -0.00101569 -0.000879975
50 2 10.3677 5.13768 8.30938 -0.0269738 0.0281756 0.0217529
51 2 10.157 6.18574 9.54077 0.0042021 0.00685561 0.0183671
52 1 9.45862 9.61667 4.01917 0.00470203 0.00263277 0.00315318
53 2 9.99272 9.96459 4.74006 0.00106003 -0.013472 0.0139648
54 2 8.55376 9.91728 4.30194 -0.0122934 -0.000152999 -0.0150779
55 1 4.72466 11.3041 3.71259 0.00244785 -0.000576319 -0.000208106
56 2 5.50476 10.7059 3.73856 0.00201875 0.0123785 -0.00540031
57 2 4.02135 10.9408 3.07878 -0.0199306 0.033407 -0.00536111
58 1 6.84757 9.98456 9.40623 -0.00453197 -0.00462792 -0.00348538
59 2 5.70839 10.5765 7.01992 -0.0238736 -0.00158768 -0.00901461
60 2 7.25274 10.9005 9.49472 0.0223344 0.00582178 -0.0105696
61 1 6.0759 4.90832 8.17492 -0.000156986 -0.00208907 0.00449476
62 2 6.46683 4.95491 9.04496 5.09338e-05 -0.00632281 -0.00118357
63 2 5.12717 4.7945 8.26873 -0.00871598 0.00514145 0.000329484
64 1 4.98062 11.1576 6.75667 0.00883639 0.00589412 -0.000500059
65 2 4.91861 11.0146 5.80193 0.0243548 0.00617809 0.0378096
66 2 4.09071 12.7459 7.40821 0.0168663 -0.00602602 -0.0122541
67 1 11.8219 10.44 7.90335 -5.71418e-07 -0.00899174 -0.00615684
68 2 11.7647 10.6188 6.93767 0.0204407 0.00188759 0.00927084
69 2 12.7459 10.1601 8.08985 0.0147327 -0.000148513 -0.00308855
70 1 8.1886 5.25591 4.8743 0.00190049 -0.00315647 -0.00562833
71 2 7.76933 4.3862 5.12718 -0.0118099 -0.00457034 0.006459
72 2 7.68069 5.98342 5.45056 -0.0113679 0.0287281 -0.00156716
73 1 10.3148 8.30777 7.31396 0.00524697 0.00118282 -0.00289263
74 2 10.5148 7.42567 7.68448 -0.000485559 0.00643802 0.0217139
75 2 10.9809 8.94735 7.74905 -0.0317956 -0.00113095 0.00163284
76 1 3.52769 13.5433 10.5134 0.0074183 -0.00173984 -6.34896e-05
77 2 12.4163 13.616 10.8014 0.0114165 -0.00862356 -0.011481
78 2 4.3869 5.57807 10.3705 -0.0276837 0.00189755 -0.00701475
79 1 4.14627 9.42765 9.26272 -0.00364724 -0.00470273 0.000962574
80 2 3.63441 9.66668 10.0678 -0.0100394 0.0335094 0.0041409
81 2 5.9195 10.1942 9.15894 0.0242599 0.00626472 -0.0228015
82 1 7.05039 7.71617 11.342 0.00545228 0.00372519 0.00141214
83 2 6.49762 7.02248 10.9916 0.00964704 -0.00446869 -0.0119061
84 2 7.17803 8.32409 10.5631 0.0241144 0.00027853 -0.00854285
85 1 10.94 13.4497 11.888 -0.00452924 0.0105578 -0.00110545
86 2 10.0817 13.3549 11.6659 -0.0199163 0.00991817 -0.0311576
87 2 4.14375 13.4966 11.3039 -0.0035352 -0.00362259 -0.000861272
88 1 7.58283 12.9131 6.33473 0.0034287 0.000763154 -0.00263193
89 2 7.13325 12.101 6.20849 -0.0197796 -0.00461086 -0.00282472
90 2 7.32455 13.1619 7.24587 0.00927895 9.6006e-05 -0.00803722
91 1 6.69298 6.92573 6.41939 -0.00179718 0.00156898 0.00676019
92 2 5.10679 7.75486 5.93065 -0.00572997 -0.0414639 0.0108071
93 2 6.36279 6.30507 7.14919 -0.000770966 0.0180338 0.00201552
94 1 3.57884 13.5338 7.66372 -0.00600329 -0.0019198 -0.000531482
95 2 3.52283 13.4786 8.64423 0.0314283 0.000864863 0.0140646
96 2 3.813 4.71997 5.85316 0.0200936 -0.0362095 -0.010927
