ITEM: TIMESTEP
0
ITEM: NUMBER OF ATOMS
96
ITEM: BOX BOUNDS pp pp pp
2.9236100000000000e+00 1.2773600000000000e+01
4.0306300000000004e+00 1.3880599999999999e+01
2.1372399999999998e+00 1.1987200000000000e+01
ITEM: ATOMS id type x y z vx vy vz
1 1 5.6206 4.34068 2.42453 -0.00179377 -0.000343721 -0.0025329
2 2 5.3369 13.2719 2.46309 -0.00719178 0.00749976 0.0215531
3 2 10.97 13.6279 11.945 -0.000648634 0.0118246 -0.01085
4 1 12.5041 12.9636 11.6481 0.00182399 -0.00183473 -0.000355204
5 2 12.5882 12.1136 11.131 0.00572174 -0.0228059 -0.0144312
6 2 3.2199 12.8138 2.6032 -0.00946642 -0.00145259 0.00550448
7 1 11.6464 7.16913 3.77376 0.00353221 0.0011938 -0.00189732
8 2 10.7269 6.94669 3.83998 0.0240898 0.0238035 0.00414839
9 2 9.65855 8.41596 7.76001 0.00970001 0.000507316 0.0177175
10 1 8.71547 8.69845 7.89264 -0.00435649 0.00153206 -0.00553656
11 2 8.32389 7.81161 8.01012 0.0230545 -0.0156836 0.000299101
12 2 7.38944 9.72889 9.00056 -0.000845758 -0.0300308 -0.00535805
13 1 6.24003 9.10244 2.14985 -0.000245344 0.00421836 0.00364083
14 2 6.47786 9.85436 11.3735 -0.0223775 0.0105207 0.00473831
15 2 5.4155 8.73125 11.6883 -0.00358357 -0.00420522 -0.00783277
16 1 8.56442 7.46777 11.9711 -0.00164673 -0.000173944 0.00341035
17 2 8.66145 7.03796 3.83576 0.0231608 0.00881484 -0.0210437
18 2 7.82848 8.07994 11.9492 -0.0119245 0.00569848 -0.000645002
19 1 4.08503 7.52198 11.5108 -0.00453355 0.000605846 -0.000390787
20 2 3.76468 7.31021 2.56997 -0.00368847 0.0137037 -0.00763625
21 2 12.1449 10.0986 11.1039 -0.0107265 0.00929078 -0.023402
22 1 10.3831 9.62614 11.9851 -0.000801833 -0.000229288 -0.00156412
23 2 10.217 9.85386 3.08248 0.000161165 0.00958941 0.0153407
24 2 9.30725 8.02836 11.7723 0.0119881 0.00293061 -0.0123844
25 1 4.15718 8.51923 6.75608 -0.00186665 -0.00389031 0.00156295
26 2 3.78887 8.71003 5.83377 0.0177301 -0.00481131 -0.0378001
27 2 12.4726 5.26168 4.00665 0.00447548 0.0230296 -0.0155482
28 1 8.89901 6.85382 4.71842 0.00295215 0.00119158 0.00339331
29 2 9.21206 5.91005 4.75105 0.030956 0.00121212 0.00276796
30 2 7.51486 6.12567 5.24519 0.00234607 0.0052754 -0.0111621
31 1 3.36801 9.71103 4.47293 0.00267109 0.000472977 -0.00783952
32 2 12.7087 10.562 4.68533 0.0199683 0.0213467 0.00850886
33 2 4.19923 10.0698 4.03959 0.00809584 0.0183136 -0.00166098
34 1 8.28946 5.47018 8.12064 0.00359781 0.000416829 0.00298417
35 2 8.50893 4.4953 8.07246 0.00982434 0.00971425 0.0174465
36 2 7.68472 5.52994 8.8955 0.00100098 0.000491473 -0.00293508
37 1 9.00196 11.5908 10.4925 0.00472581 0.00203036 -0.00400861
38 2 9.45725 12.1945 9.82586 0.0155713 0.0072205 -0.0221148
39 2 9.88933 10.3524 11.4639 -0.0234082 -0.0130374 -0.00893389
40 1 12.0857 12.0894 5.30038 -0.000726717 0.00054657 0.0017547
41 2 3.08031 13.7213 4.52985 0.00130216 0.0227371 -0.00844283
42 2 11.1564 12.2991 5.13818 0.0160963 -0.00881448 0.00650623
43 1 3.36993 4.6682 4.07772 -0.00536697 -0.00203453 -0.00269684
44 2 11.7041 8.14405 3.91322 0.0131565 -0.00705103 0.0189129
45 2 4.85381 4.73744 2.88025 -0.00376566 0.0272677 0.0139088
46 1 9.72767 12.5894 8.03463 0.00196338 0.00999943 0.00562868
47 2 9.24555 12.3123 7.28695 0.0200388 0.0159379 0.00171522
48 2 10.4836 12.0124 8.05512 -0.00989974 -0.00974126 0.00487789
49 1 10.3635 6.16352 9.78165 -0.00343005 0.00498049 0.0037849
50 2 9.79215 5.7304 9.10838 -0.00608736 -0.020046 -0.0224218
51 2 9.83506 6.2827 10.5131 -0.0127381 -0.00932583 -0.00293041
52 1 9.73023 9.68149 4.76108 -0.00278228 -0.00385498 -0.00070329
53 2 9.42579 8.78714 4.925 0.00786289 -0.0299019 -0.000731019
54 2 8.99362 10.2412 5.21866 -0.00300389 0.000399077 0.00446194
55 1 4.72085 11.3516 2.96692 0.00017667 -0.00207031 -0.00448209
56 2 5.46429 10.7822 2.9067 -0.0109847 0.0496322 -0.00434972
57 2 4.15159 10.8773 2.34469 0.0130283 0.0127277 0.0296455
58 1 6.84852 10.3805 9.41699 0.000427577 -0.00469654 0.000613333
59 2 4.89958 11.9196 7.18772 0.00316722 -0.016101 -0.0304006
60 2 8.13513 11.3667 10.0094 -0.0135949 0.0169391 -0.0186643
61 1 7.06087 5.2782 5.76856 0.000156504 -0.00550261 0.00558277
62 2 7.31401 5.34607 6.70606 -0.00984356 0.00319621 0.00120676
63 2 5.67861 5.80581 5.932 -0.0434012 -0.00952319 0.00250799
64 1 5.53168 11.1503 7.17282 -0.00544742 -0.00334474 0.00360779
65 2 4.94799 10.4115 6.99543 -0.0198108 -0.0165385 0.0110752
66 2 12.0985 11.6875 6.15651 0.00428378 0.0253101 -0.0106386
67 1 12.3696 11.7859 8.20585 0.00012588 -3.99519e-05 0.00020155
68 2 12.764 12.7456 8.12291 0.00759049 0.0159015 0.00222427
69 2 12.5906 11.529 9.10548 -0.0274416 -0.0246285 -0.0106239
70 1 9.81695 4.30421 4.8269 0.00338697 -0.00142997 0.00084463
71 2 9.99916 13.7992 3.90041 -0.00342364 0.0220811 -0.0270029
72 2 8.99477 13.8067 5.12254 -0.0139715 0.00707982 0.0105803
73 1 11.5179 8.34952 8.14785 -0.00053689 -0.00274361 -0.00165678
74 2 11.2424 7.53694 8.67696 -0.0158228 -0.0147091 -0.0250912
75 2 12.3062 8.02186 7.61358 -0.0126331 0.00369963 -0.00389584
76 1 3.09745 5.41942 9.85105 -0.000176491 -0.00398905 -0.00311128
77 2 12.0119 5.62033 9.84065 -0.00492214 -0.00982217 0.00446468
78 2 3.60621 6.88599 10.9546 0.00375757 0.0205878 0.0236127
79 1 3.13479 10.2655 10.6722 0.0034386 0.000277778 -0.00213889
80 2 3.29307 9.36636 10.3282 -0.020174 2.02486e-05 -0.00977191
81 2 6.35693 10.6493 8.60512 -0.0122315 0.00523287 -0.00475842
82 1 6.0969 5.8254 9.79713 0.00299438 0.00260704 0.00693451
83 2 5.51697 6.61239 10.0076 0.0126081 0.00573443 0.0014242
84 2 6.16555 5.3298 10.6153 -0.0152037 0.0311801 -0.00840764
85 1 10.0097 13.6439 2.18093 0.000139498 -0.00762146 4.11535e-05
86 2 9.51125 12.9021 11.6323 -0.00867028 -0.0286763 0.0145087
87 2 3.09819 4.52562 10.3556 -0.00478881 0.027195 0.0262705
88 1 7.96603 11.7476 5.88269 -0.00120412 -0.00387626 0.00454634
89 2 7.21796 11.2496 6.14215 0.0233403 -0.0188532 0.0037195
90 2 7.68593 12.6824 5.80513 -0.00144645 0.00539149 0.0129009
91 1 4.58959 5.95758 6.09738 0.00905902 0.00363566 -0.000605039
92 2 4.53606 7.57909 6.63592 0.0017299 -0.0276032 -0.0025773
93 2 3.89421 4.81445 7.06814 0.00336927 0.00783109 -0.00550709
94 1 4.04125 4.17 7.81639 -0.00461924 0.00306418 -0.00293624
95 2 4.2311 4.79707 8.57435 0.00215557 -0.0152586 0.00889077
96 2 4.12147 5.61172 5.3557 0.00040621 0.0148093 0.00206531
ITEM: TIMESTEP
1
ITEM: NUMBER OF ATOMS
96
ITEM: BOX BOUNDS pp pp pp
2.9236100000000000e+00 1.2773600000000000e+01
4.0306300000000004e+00 1.3880599999999999e+01
2.1372399999999998e+00 1.1987200000000000e+01
ITEM: ATOMS id type x y z vx vy vz
1 1 5.61966 4.3405 2.42327 -0.00201708 -0.000360428 -0.00247721
2 2 5.33395 13.2752 2.47362 -0.00471963 0.00575909 0.0205914
3 2 10.9705 13.6329 11.9389 0.0024157 0.00820161 -0.0135399
4 1 12.5051 12.9626 11.6479 0.00220744 -0.00216739 -0.00052197
5 2 12.5911 12.1031 11.1247 0.00565972 -0.01861 -0.01047
6 2 3.21454 12.8132 2.60503 -0.0119477 -0.00100952 0.00182057
7 1 11.6482 7.16976 3.77281 0.00387587 0.00131374 -0.00190955
8 2 10.7387 6.95907 3.84221 0.0220847 0.0253271 0.00481131
9 2 9.6628 8.41744 7.76905 0.00701169 0.00568736 0.0183971
10 1 8.71333 8.69909 7.88987 -0.00419384 0.000996776 -0.00554203
11 2 8.33523 7.80447 8.0102 0.0221315 -0.0126785 1.75754e-05
12 2 7.391 9.71224 8.99832 0.00625064 -0.0356389 -0.00337947
13 1 6.24001 9.10467 2.15167 0.000148908 0.00467703 0.00360918
14 2 6.46614 9.85818 11.3762 -0.0243469 0.00485438 0.00617407
15 2 5.4131 8.72883 11.6839 -0.00558545 -0.0053438 -0.00932557
16 1 8.5636 7.46762 11.9728 -0.00162212 -0.000383021 0.00333489
17 2 8.6722 7.04299 3.82213 0.0201435 0.0110421 -0.0325159
18 2 7.82109 8.08311 11.949 -0.0170575 0.00668716 -0.000233596
19 1 4.08273 7.52226 11.5106 -0.00462497 0.000553678 -0.000213159
20 2 3.76285 7.31738 2.56528 -0.00376244 0.0148877 -0.0105968
21 2 12.139 10.1034 11.0926 -0.0127591 0.00986924 -0.0219093
22 1 10.3826 9.62612 11.9843 -0.00103991 0.0001708 -0.00177739
23 2 10.2171 9.85832 3.09025 0.00026407 0.00810785 0.0150728
24 2 9.31469 8.03052 11.7661 0.0170276 0.00538073 -0.0123732
25 1 4.15625 8.5172 6.75678 -0.00185841 -0.00427879 0.00116758
26 2 3.79778 8.70843 5.81557 0.0182282 -0.00166977 -0.0339937
27 2 12.4741 5.27339 3.99895 0.00190786 0.0235049 -0.015169
28 1 8.90046 6.85442 4.72031 0.0028465 0.00119199 0.00413065
29 2 9.22842 5.90949 4.75248 0.0342922 -0.0030435 0.00287254
30 2 7.51545 6.12654 5.24119 -3.74715e-05 -0.0022431 -0.00453594
31 1 3.36934 9.71133 4.46901 0.00267454 0.000752057 -0.00783926
32 2 12.7188 10.5717 4.68963 0.0202228 0.0172235 0.00869639
33 2 4.20282 10.0785 4.03904 0.00617887 0.0161881 -0.000434901
34 1 8.29128 5.47032 8.12215 0.00369539 0.000154941 0.0030705
35 2 8.51394 4.50104 8.08125 0.0102761 0.0128276 0.0176188
36 2 7.6848 5.53031 8.89383 -0.000768939 0.00102717 -0.00358582
37 1 9.00431 11.5919 10.4904 0.00466436 0.00230584 -0.00434229
38 2 9.46482 12.1973 9.8152 0.0144012 0.00372611 -0.0200257
39 2 9.87837 10.3446 11.46 -0.0203017 -0.0180914 -0.00664106
40 1 12.0854 12.0897 5.30118 -0.000617791 0.0005956 0.0014188
41 2 3.0803 13.7325 4.52588 -0.00173283 0.0212585 -0.00700654
42 2 11.1645 12.2947 5.14173 0.0154462 -0.00862232 0.00746394
43 1 3.3673 4.6672 4.07636 -0.00512724 -0.00190152 -0.00275918
44 2 11.7104 8.1394 3.92257 0.0120955 -0.011145 0.0184809
45 2 4.85253 4.75165 2.88704 -0.000719721 0.029046 0.0128228
46 1 9.72863 12.5945 8.03754 0.00191603 0.0103217 0.00603115
47 2 9.2543 12.3197 7.28631 0.0147601 0.0136524 -0.00441777
48 2 10.4802 12.007 8.05771 -0.00389788 -0.0117058 0.00557575
49 1 10.3619 6.16602 9.78342 -0.00321565 0.00499716 0.00324339
50 2 9.78896 5.72035 9.09701 -0.00605347 -0.0195702 -0.0221794
51 2 9.8272 6.27845 10.5138 -0.0185583 -0.00776662 0.00554414
52 1 9.72872 9.67965 4.76082 -0.0032745 -0.0035492 -0.000355302
53 2 9.42992 8.77202 4.92452 0.00874496 -0.0296713 -0.00123247
54 2 8.99398 10.2405 5.21976 0.00437666 -0.0032407 -4.84713e-05
55 1 4.72091 11.3506 2.96468 3.16546e-05 -0.00186324 -0.00437884
56 2 5.46099 10.8066 2.90496 -0.000428645 0.0468331 -0.0026756
57 2 4.15684 10.8841 2.35883 0.00671646 0.0135679 0.0256782
58 1 6.84871 10.3782 9.41731 0.000354196 -0.00469593 0.000603688
59 2 4.90188 11.9107 7.17281 0.00568076 -0.0189239 -0.0291537
60 2 8.12866 11.3748 10.0007 -0.0117802 0.0154457 -0.0158057
61 1 7.06104 5.27551 5.77117 0.000509952 -0.00523388 0.00485777
62 2 7.30977 5.34813 6.70755 -0.00719977 0.00508537 0.00453226
63 2 5.65536 5.80078 5.93309 -0.0480856 -0.0107508 0.00174256
64 1 5.5289 11.1487 7.17458 -0.00569265 -0.0030906 0.00341813
65 2 4.93783 10.4028 7.00098 -0.0203747 -0.0179085 0.011234
66 2 12.1004 11.7002 6.15229 0.00332784 0.0250094 -0.00536079
67 1 12.3697 11.786 8.20595 0.000284605 0.00051093 0.000164099
68 2 12.7673 12.752 8.12393 0.0054138 0.00906103 0.00211349
69 2 12.5769 11.5161 9.10018 -0.0272594 -0.0268476 -0.0102927
70 1 9.81872 4.30352 4.82731 0.00367888 -0.00135986 0.000792458
71 2 9.99677 13.8104 3.88703 -0.00634131 0.0229501 -0.0260283
72 2 8.98697 13.8097 5.12782 -0.0165341 0.0051237 0.010164
73 1 11.5177 8.34798 8.14702 -0.000378438 -0.00338733 -0.00165711
74 2 11.235 7.53107 8.66365 -0.0136417 -0.00885979 -0.027972
75 2 12.2989 8.02482 7.61246 -0.0160251 0.00797107 -0.000863617
76 1 3.09744 5.41728 9.84958 0.000116199 -0.0045371 -0.0027674
77 2 12.0084 5.61605 9.8425 -0.00914246 -0.00717002 0.00283629
78 2 3.60818 6.89611 10.9663 0.00350892 0.0191169 0.0224915
79 1 3.1365 10.2656 10.6711 0.00337156 0.000110815 -0.00230114
80 2 3.28339 9.36693 10.3235 -0.0184414 0.00223372 -0.00924909
81 2 6.34953 10.6534 8.6028 -0.0168029 0.0108872 -0.00401377
82 1 6.09837 5.82678 9.80058 0.00289777 0.00294676 0.00679774
83 2 5.52409 6.61373 10.0085 0.0156149 -2.00642e-05 0.00215687
84 2 6.15748 5.34552 10.6115 -0.0168244 0.0309147 -0.00571395
85 1 10.0096 13.6402 2.18102 -0.000489133 -0.00727862 0.000328701
86 2 9.50775 12.8874 11.6394 -0.00502209 -0.0298212 0.0138797
87 2 3.09625 4.54069 10.3681 -0.00276562 0.0325231 0.0239589
88 1 7.96554 11.7457 5.88491 -0.000741494 -0.00357029 0.00431184
89 2 7.22828 11.2402 6.14457 0.0175946 -0.0186312 0.00605455
90 2 7.68475 12.6843 5.81175 -0.00331364 0.00176737 0.013651
91 1 4.59417 5.95951 6.09717 0.00922163 0.00408458 -0.000220812
92 2 4.53647 7.56638 6.63522 -0.000443833 -0.0222709 -5.63929e-05
93 2 3.89577 4.81788 7.06481 0.00283859 0.00573926 -0.0073077
94 1 4.03896 4.17155 7.81498 -0.00453883 0.00310248 -0.00270362
95 2 4.23184 4.78857 8.57905 0.000730862 -0.0185322 0.0097497
96 2 4.12132 5.61845 5.35485 -0.0012943 0.0120915 -0.00562098
ITEM: TIMESTEP
2
ITEM: NUMBER OF ATOMS
96
ITEM: BOX BOUNDS pp pp pp
2.9236100000000000e+00 1.2773600000000000e+01
4.0306300000000004e+00 1.3880599999999999e+01
2.1372399999999998e+00 1.1987200000000000e+01
ITEM: ATOMS id type x y z vx vy vz
1 1 5.61858 4.34032 2.42205 -0.00230707 -0.000315154 -0.00236187
2 2 5.33218 13.2777 2.48368 -0.00249367 0.0040354 0.0196915
3 2 10.9724 13.6361 11.9315 0.00518912 0.00440769 -0.016238
4 1 12.5063 12.9614 11.6476 0.00256919 -0.00256264 -0.000743809
5 2 12.5939 12.095 11.1205 0.00554921 -0.0132326 -0.00574216
6 2 3.20795 12.8128 2.60502 -0.014245 -0.000643977 -0.00169051
7 1 11.6503 7.17044 3.77185 0.00433314 0.00142313 -0.00193213
8 2 10.749 6.97202 3.84479 0.0179733 0.0260798 0.00557489
9 2 9.66556 8.42165 7.77841 0.00391944 0.0113081 0.0189501
10 1 8.71128 8.69945 7.8871 -0.00399753 0.000421756 -0.00553174
11 2 8.34602 7.79893 8.01014 0.0208497 -0.00938427 -0.000306227
12 2 7.39569 9.69325 8.99718 0.0115354 -0.0391789 -0.000961081
13 1 6.24018 9.10712 2.15346 0.000476577 0.00507984 0.00354836
14 2 6.45351 9.85921 11.3797 -0.0258993 -0.000434173 0.00744991
15 2 5.40991 8.72591 11.679 -0.00667349 -0.00620112 -0.0102477
16 1 8.5628 7.46739 11.9744 -0.00157601 -0.000489357 0.00324507
17 2 8.68159 7.049 3.80324 0.0178583 0.0126112 -0.0416896
18 2 7.81142 8.08663 11.949 -0.0208925 0.00702211 0.000197547
19 1 4.08041 7.52253 11.5106 -0.0046141 0.000618518 -2.82407e-06
20 2 3.76092 7.3251 2.55937 -0.0041489 0.0159131 -0.0123813
21 2 12.1321 10.1085 11.082 -0.0144751 0.0105992 -0.0204455
22 1 10.3821 9.62631 11.9833 -0.00130561 0.000567014 -0.00191655
23 2 10.2173 9.86197 3.09755 0.000447311 0.00637322 0.013517
24 2 9.32428 8.03374 11.7599 0.0203859 0.00711457 -0.0118701
25 1 4.15532 8.51495 6.75725 -0.00185752 -0.00471489 0.000628619
26 2 3.8071 8.70836 5.79978 0.019289 0.00125984 -0.0283445
27 2 12.4745 5.28518 3.99148 -0.000168828 0.0233403 -0.0146112
28 1 8.90186 6.85501 4.72255 0.002706 0.00114969 0.00473241
29 2 9.24635 5.90701 4.75392 0.0371054 -0.00629069 0.00280373
30 2 7.51482 6.12343 5.24065 -0.00243928 -0.0104031 0.00249121
31 1 3.37068 9.71178 4.46509 0.00269687 0.00109161 -0.00781881
32 2 12.7289 10.5792 4.69403 0.0202889 0.0123803 0.00889944
33 2 4.20541 10.086 4.03916 0.00424075 0.0133775 0.000895864
34 1 8.29316 5.47033 8.12371 0.00381262 -5.28651e-05 0.00316388
35 2 8.51921 4.50813 8.09008 0.0108819 0.0150009 0.0175745
36 2 7.68395 5.53097 8.89191 -0.00266846 0.00164987 -0.00396143
37 1 9.00662 11.5931 10.4882 0.00456212 0.00261174 -0.00476841
38 2 9.47165 12.1982 9.80583 0.0126931 -0.000419438 -0.017096
39 2 9.86903 10.3343 11.4573 -0.0170959 -0.0230024 -0.00414711
40 1 12.0851 12.09 5.3018 -0.000415405 0.000660257 0.00101271
41 2 3.07858 13.7426 4.52284 -0.00551336 0.0184679 -0.00475083
42 2 11.1718 12.2905 5.14564 0.0131618 -0.00800873 0.00796549
43 1 3.3648 4.6663 4.07496 -0.00485849 -0.00163556 -0.00288356
44 2 11.7162 8.1329 3.9317 0.0113753 -0.0143118 0.0180769
45 2 4.85309 4.76649 2.89307 0.00344953 0.0297712 0.0109595
46 1 9.72959 12.5997 8.04066 0.00191016 0.0105946 0.00642104
47 2 9.26031 12.326 7.28253 0.00937486 0.0115883 -0.0104479
48 2 10.4797 12.0007 8.0607 0.00164046 -0.0131203 0.00641853
49 1 10.3603 6.16852 9.78489 -0.00311218 0.0049514 0.00264797
50 2 9.7861 5.71083 9.0862 -0.00483004 -0.0179112 -0.0201913
51 2 9.8165 6.27493 10.5186 -0.0238068 -0.00644986 0.0129979
52 1 9.72696 9.67794 4.76072 -0.00375343 -0.00333961 -2.24104e-05
53 2 9.43453 8.75747 4.92377 0.00976935 -0.0277356 -0.00182985
54 2 8.998 10.238 5.21861 0.0114115 -0.00706813 -0.00440405
55 1 4.72088 11.3497 2.96254 -0.000157434 -0.00141608 -0.00411978
56 2 5.46386 10.829 2.90402 0.0129549 0.0421931 -0.00124634
57 2 4.15831 10.8909 2.37037 -0.00164335 0.0126852 0.0195468
58 1 6.84887 10.3758 9.41759 0.000333337 -0.00474874 0.000492176
59 2 4.90526 11.9007 7.15857 0.00737565 -0.0205588 -0.0277299
60 2 8.12335 11.3821 9.99359 -0.00903846 0.0139083 -0.0123188
61 1 7.06138 5.27297 5.77342 0.000867032 -0.00491101 0.00412577
62 2 7.30681 5.35116 6.71059 -0.00474587 0.00697093 0.00732362
63 2 5.63052 5.79506 5.93374 -0.0497168 -0.0123004 0.000782891
64 1 5.52599 11.1472 7.17624 -0.00593272 -0.00297903 0.00321564
65 2 4.92762 10.3936 7.00666 -0.0200339 -0.0183875 0.0116304
66 2 12.1018 11.7125 6.15115 0.00253017 0.0239868 0.00140949
67 1 12.3699 11.7864 8.20601 0.000425878 0.00108449 6.86859e-05
68 2 12.7694 12.7547 8.12502 0.00318973 0.00155315 0.00253086
69 2 12.5633 11.5022 9.09519 -0.0266489 -0.0286499 -0.00946529
70 1 9.82063 4.30285 4.82769 0.00389698 -0.00131079 0.000720709
71 2 9.99282 13.8222 3.87438 -0.00963454 0.0239098 -0.0241751
72 2 8.97824 13.8118 5.1327 -0.0176877 0.0037074 0.00897498
73 1 11.5175 8.34613 8.14619 -0.000276736 -0.00397645 -0.00163607
74 2 11.2288 7.52808 8.64899 -0.0115377 -0.0034492 -0.0303914
75 2 12.2902 8.02983 7.61272 -0.0183542 0.0117966 0.00147324
76 1 3.09757 5.41488 9.84828 0.000350001 -0.00502742 -0.0024477
77 2 12.0028 5.61316 9.84349 -0.0130181 -0.00430833 0.00099757
78 2 3.60972 6.90511 10.9771 0.00203028 0.016115 0.0198125
79 1 3.13816 10.2656 10.6699 0.00326304 -5.58873e-05 -0.00246494
80 2 3.27463 9.36859 10.319 -0.0165041 0.00428386 -0.00883986
81 2 6.34013 10.6602 8.60111 -0.0201196 0.0156362 -0.00226043
82 1 6.0998 5.82835 9.80393 0.00280801 0.00333005 0.00654325
83 2 5.53258 6.61237 10.0098 0.0180226 -0.00483487 0.00270053
84 2 6.14873 5.36071 10.6096 -0.0179765 0.0290956 -0.00112061
85 1 10.0092 13.6366 2.18126 -0.00112556 -0.00697687 0.000602718
86 2 9.50623 12.8723 11.6462 -0.000842024 -0.0302767 0.0134815
87 2 3.09542 4.55814 10.3796 -0.000378374 0.0365677 0.022073
88 1 7.96529 11.744 5.887 -0.00024462 -0.00323642 0.00406245
89 2 7.23555 11.231 6.1482 0.0114117 -0.0183911 0.00852386
90 2 7.68262 12.6842 5.81878 -0.00528177 -0.00235371 0.0144929
91 1 4.59881 5.96166 6.09716 0.00926203 0.00453268 0.000145116
92 2 4.53562 7.55682 6.63586 -0.00317519 -0.0152501 0.00271029
93 2 3.89705 4.82019 7.06083 0.00225743 0.00340424 -0.00813252
94 1 4.03671 4.1731 7.81369 -0.00446804 0.00310229 -0.00249489
95 2 4.23183 4.77854 8.5841 -0.000825976 -0.0213313 0.0103126
96 2 4.12018 5.62381 5.35008 -0.00343237 0.00941599 -0.013362
ITEM: TIMESTEP
3
ITEM: NUMBER OF ATOMS
96
ITEM: BOX BOUNDS pp pp pp
2.9236100000000000e+00 1.2773600000000000e+01
4.0306300000000004e+00 1.3880599999999999e+01
2.1372399999999998e+00 1.1987200000000000e+01
ITEM: ATOMS id type x y z vx vy vz
1 1 5.61735 4.34018 2.42091 -0.00264149 -0.000217902 -0.00219884
2 2 5.33146 13.2793 2.49331 -0.000561298 0.00240839 0.0188943
3 2 10.9756 13.6373 11.9227 0.00736427 0.000502834 -0.0188531
4 1 12.5077 12.96 11.6471 0.00289705 -0.00298837 -0.00101996
5 2 12.5966 12.0898 11.1189 0.00539739 -0.00716553 -0.000604714
6 2 3.20029 12.8125 2.60334 -0.0161419 -0.000380246 -0.00467193
7 1 11.6526 7.17118 3.77088 0.00487938 0.0015026 -0.00196697
8 2 10.7567 6.98515 3.84778 0.0120365 0.0261152 0.00642836
9 2 9.66672 8.42875 7.788 0.000710622 0.0171558 0.0193373
10 1 8.70933 8.69951 7.88434 -0.00378906 -0.000163433 -0.00550272
11 2 8.35608 7.79508 8.0099 0.0192212 -0.00605122 -0.000664855
12 2 7.40253 9.67306 8.99736 0.0147861 -0.0403726 0.0018263
13 1 6.24049 9.10975 2.15522 0.000724388 0.00541122 0.00347291
14 2 6.44024 9.85774 11.3837 -0.0269105 -0.00500216 0.00831288
15 2 5.40643 8.72263 11.6737 -0.00679217 -0.00677999 -0.0105349
16 1 8.56202 7.46713 11.976 -0.00150811 -0.000484909 0.0031425
17 2 8.69005 7.0556 3.78045 0.0164259 0.0133505 -0.0478909
18 2 7.8002 8.09013 11.9492 -0.0232141 0.00662031 0.000649229
19 1 4.07811 7.52287 11.5106 -0.00450501 0.000790235 0.000219799
20 2 3.7587 7.33329 2.5529 -0.00490184 0.0167621 -0.0128394
21 2 12.1245 10.114 11.0721 -0.0156915 0.011461 -0.0191055
22 1 10.3813 9.62669 11.9823 -0.00157938 0.000932322 -0.0019794
23 2 10.2175 9.86469 3.10377 0.000677523 0.00444394 0.0108501
24 2 9.33508 8.03764 11.7542 0.021845 0.0080822 -0.0107906
25 1 4.15439 8.51248 6.75741 -0.00186412 -0.00516035 -1.88075e-05
26 2 3.81707 8.70969 5.78723 0.0207213 0.0039644 -0.0212536
27 2 12.474 5.29673 3.98434 -0.00163653 0.0224713 -0.0138836
28 1 8.90317 6.85557 4.72505 0.00254407 0.00105517 0.00515066
29 2 9.26553 5.9032 4.75528 0.0391668 -0.00813905 0.00251411
30 2 7.51301 6.11614 5.24368 -0.00462352 -0.0186475 0.00947262
31 1 3.37204 9.71242 4.46119 0.00273335 0.00146819 -0.00777607
32 2 12.7391 10.5841 4.69853 0.0200335 0.00710489 0.00916275
33 2 4.20706 10.0919 4.03993 0.00251732 0.0100624 0.00212878
34 1 8.29509 5.47026 8.12532 0.00394334 -0.000194962 0.00326283
35 2 8.52482 4.51604 8.09883 0.0116783 0.0160533 0.0173394
36 2 7.68213 5.53196 8.88987 -0.00466356 0.00233314 -0.00409569
37 1 9.00888 11.5945 10.4857 0.00442409 0.00293496 -0.00525913
38 2 9.47751 12.1969 9.79811 0.0106341 -0.00492553 -0.0136339
39 2 9.86128 10.3216 11.4558 -0.0140385 -0.027444 -0.00168038
40 1 12.0849 12.0903 5.3022 -0.000133269 0.00072715 0.000571142
41 2 3.07479 13.7509 4.52113 -0.00989245 0.0146484 -0.00183606
42 2 11.1777 12.2867 5.14969 0.00943163 -0.00700894 0.00802665
43 1 3.36244 4.66556 4.07348 -0.0045769 -0.0012489 -0.00305593
44 2 11.7218 8.12509 3.94065 0.0110723 -0.0163062 0.0177537
45 2 4.85598 4.78142 2.898 0.0084273 0.0294896 0.00848037
46 1 9.73054 12.6051 8.04396 0.0019442 0.0107832 0.00675782
47 2 9.26367 12.3313 7.27586 0.00439046 0.00991879 -0.0156773
48 2 10.4818 11.9939 8.06413 0.00624491 -0.0136289 0.00731238
49 1 10.3587 6.17097 9.78607 -0.00313961 0.00485299 0.00205172
50 2 9.78413 5.70244 9.07682 -0.00257157 -0.0151392 -0.0165718
51 2 9.80339 6.272 10.5268 -0.0279642 -0.00547224 0.0187328
52 1 9.72496 9.67631 4.76079 -0.00418209 -0.0032337 0.000274593
53 2 9.43969 8.74428 4.92269 0.0108194 -0.0244233 -0.00247435
54 2 9.00539 10.2335 5.21536 0.0176087 -0.01071 -0.00829052
55 1 4.72075 11.3492 2.96056 -0.000353444 -0.000814563 -0.00374931
56 2 5.47395 10.8488 2.90372 0.0271891 0.0365528 -0.000359104
57 2 4.15519 10.8968 2.37838 -0.0107033 0.0104172 0.0121764
58 1 6.84904 10.3734 9.4178 0.000368018 -0.00486144 0.000281563
59 2 4.90926 11.8902 7.14508 0.0080928 -0.0208297 -0.0261832
60 2 8.11962 11.3887 9.98838 -0.00563627 0.0122775 -0.00836459
61 1 7.0619 5.2706 5.7753 0.00122125 -0.0045683 0.00342209
62 2 7.30503 5.3551 6.71488 -0.00252638 0.0087524 0.00950092
63 2 5.60564 5.78848 5.93387 -0.0483429 -0.0141601 -0.000339637
64 1 5.52296 11.1457 7.17779 -0.00615432 -0.00301815 0.00300603
65 2 4.9178 10.3844 7.01261 -0.0188348 -0.0180126 0.01224
66 2 12.1029 11.7242 6.1537 0.00192193 0.0225233 0.0090981
67 1 12.3701 11.7871 8.20602 0.000534063 0.00164331 -7.58615e-05
68 2 12.7705 12.7535 8.12646 0.00108689 -0.00610544 0.00342797
69 2 12.5502 11.4874 9.09072 -0.02565 -0.0300204 -0.00823472
70 1 9.82262 4.3022 4.82803 0.00403178 -0.00127697 0.00063836
71 2 9.98714 13.8344 3.86286 -0.0131718 0.0248972 -0.0216218
72 2 8.96929 13.8134 5.1368 -0.0174088 0.00286027 0.00707172
73 1 11.5174 8.34401 8.14538 -0.000240954 -0.00447365 -0.0015933
74 2 11.2235 7.52763 8.63326 -0.00966102 0.00109378 -0.0321268
75 2 12.2806 8.03662 7.61393 -0.0193318 0.0150105 0.00289643
76 1 3.09779 5.41226 9.84713 0.000509271 -0.00543342 -0.00216619
77 2 11.9953 5.61174 9.8435 -0.0162561 -0.00139166 -0.00100982
78 2 3.61021 6.91223 10.9861 -0.000557745 0.0117425 0.0157369
79 1 3.13976 10.2655 10.6686 0.00310783 -0.000212248 -0.00261655
80 2 3.26689 9.37122 10.3146 -0.0143876 0.0060317 -0.00856292
81 2 6.32941 10.6691 8.60054 -0.022026 0.0192799 0.000488755
82 1 6.10118 5.83011 9.80712 0.00274076 0.00372475 0.00618907
83 2 5.54211 6.60889 10.0112 0.0196065 -0.00834453 0.00306571
84 2 6.13951 5.37462 10.6104 -0.0186766 0.0258778 0.00506099
85 1 10.0085 13.6332 2.18163 -0.00174697 -0.00671643 0.000859244
86 2 9.50691 12.8571 11.6528 0.00376665 -0.030065 0.0132798
87 2 3.09587 4.57726 10.3902 0.00228526 0.039121 0.0208131
88 1 7.96529 11.7425 5.88897 0.000257901 -0.00290057 0.00381321
89 2 7.23969 11.2218 6.15309 0.00527606 -0.017936 0.0109782
90 2 7.67947 12.6819 5.82625 -0.00733959 -0.00671545 0.0153833
91 1 4.60344 5.96404 6.09732 0.00915166 0.0049589 0.000458406
92 2 4.53329 7.55113 6.63793 -0.00620952 -0.00713925 0.00561001
93 2 3.89803 4.82128 7.05668 0.00168762 0.00095928 -0.00804398
94 1 4.03449 4.17465 7.81249 -0.00440669 0.00305799 -0.00231525
95 2 4.23101 4.76724 8.58936 -0.00246608 -0.0235435 0.0106084
96 2 4.11789 5.62787 5.34149 -0.00572663 0.00699286 -0.0206111
ITEM: TIMESTEP
4
ITEM: NUMBER OF ATOMS
96
ITEM: BOX BOUNDS pp pp pp
2.9236100000000000e+00 1.2773600000000000e+01
4.0306300000000004e+00 1.3880599999999999e+01
2.1372399999999998e+00 1.1987200000000000e+01
ITEM: ATOMS id type x y z vx vy vz
1 1 5.61594 4.3401 2.41985 -0.00299441 -8.13335e-05 -0.00200365
2 2 5.33162 13.2801 2.50258 0.00103772 0.000945445 0.018234
3 2 10.9798 13.6366 11.9126 0.00868837 -0.0034464 -0.0212908
4 1 12.5092 12.9584 11.6466 0.00318025 -0.00341107 -0.00134758
5 2 12.5993 12.0878 11.1199 0.00521672 -0.000926658 0.00457135
6 2 3.19181 12.8124 2.60035 -0.0174465 -0.000238302 -0.00679183
7 1 11.6552 7.17195 3.76988 0.00547645 0.00153518 -0.00201409
8 2 10.761 6.99813 3.85122 0.00479323 0.0255474 0.00733791
9 2 9.66627 8.4388 7.79774 -0.00231429 0.0230172 0.0195376
10 1 8.70749 8.69928 7.8816 -0.00359001 -0.000730036 -0.00545437
11 2 8.36524 7.79288 8.00947 0.0172742 -0.00293349 -0.00104567
12 2 7.41048 9.65288 8.99901 0.0159262 -0.0391278 0.00483838
13 1 6.2409 9.11253 2.15693 0.000885598 0.00566011 0.00339752
14 2 6.4266 9.85421 11.388 -0.0272852 -0.00854696 0.00854303
15 2 5.40312 8.71913 11.6684 -0.00597346 -0.00711842 -0.0101605
16 1 8.56129 7.4669 11.9776 -0.00142059 -0.000374059 0.00303114
17 2 8.69802 7.06235 3.75535 0.0158586 0.013188 -0.0507673
18 2 7.78821 8.09325 11.9496 -0.0239457 0.00548424 0.00112507
19 1 4.0759 7.52332 11.5108 -0.00431231 0.00104636 0.000431377
20 2 3.75602 7.34186 2.54653 -0.00604627 0.0174373 -0.0119367
21 2 12.1164 10.1199 11.0629 -0.0162688 0.0124249 -0.0179595
22 1 10.3805 9.62724 11.9813 -0.00184053 0.00124201 -0.00196855
23 2 10.2179 9.86641 3.1084 0.000920953 0.00239644 0.00731808
24 2 9.34612 8.04182 11.7491 0.0213686 0.00831472 -0.00910743
25 1 4.15346 8.50979 6.75723 -0.0018796 -0.00557441 -0.000732693
26 2 3.82782 8.71232 5.77852 0.0223181 0.00644393 -0.0132224
27 2 12.4729 5.30766 3.9776 -0.00244005 0.0208792 -0.0130009
28 1 8.9044 6.85607 4.7277 0.00237919 0.000902142 0.00535613
29 2 9.28552 5.89887 4.75644 0.0403019 -0.0083219 0.00198723
30 2 7.5102 6.10478 5.25013 -0.00636827 -0.0263824 0.0159356
31 1 3.37342 9.71325 4.45731 0.00277839 0.00185702 -0.00771025
32 2 12.749 10.5863 4.70319 0.0193437 0.00170522 0.00952991
33 2 4.20793 10.0961 4.04128 0.00124061 0.00644582 0.00307909
34 1 8.2971 5.47014 8.12697 0.00407861 -0.000265369 0.00336585
35 2 8.53088 4.52418 8.10742 0.012684 0.0159036 0.0169499
36 2 7.67929 5.5333 8.88782 -0.00669787 0.00304569 -0.00405188
37 1 9.01105 11.596 10.4829 0.00425644 0.00326037 -0.0057831
38 2 9.48229 12.1933 9.7922 0.00844435 -0.00947568 -0.00997489
39 2 9.85499 10.3069 11.4556 -0.011372 -0.0311174 0.000529503
40 1 12.0849 12.0907 5.30237 0.000205173 0.00078241 0.000136051
41 2 3.06868 13.7572 4.52101 -0.0146743 0.01021 0.00149935
42 2 11.1813 12.2835 5.15367 0.00462757 -0.00570297 0.00771481
43 1 3.36023 4.66505 4.0719 -0.00429798 -0.000764346 -0.00325616
44 2 11.7273 8.1166 3.94945 0.0112449 -0.01698 0.0175575
45 2 4.86152 4.79598 2.90155 0.0138442 0.0283108 0.00559258
46 1 9.73153 12.6105 8.04742 0.00201325 0.0108618 0.00700671
47 2 9.2647 12.3359 7.26685 0.000213563 0.00877516 -0.0195181
48 2 10.4859 11.9871 8.06801 0.00958882 -0.0129722 0.00817807
49 1 10.3571 6.17337 9.78695 -0.00330308 0.00471367 0.00150139
50 2 9.78352 5.69569 9.06963 0.000501631 -0.0114176 -0.0115653
51 2 9.78854 6.26946 10.5374 -0.0306574 -0.00487502 0.0222954
52 1 9.72277 9.67471 4.761 -0.0045252 -0.00323359 0.000515954
53 2 9.44535 8.73305 4.92129 0.0117719 -0.0201498 -0.00311058
54 2 9.01561 10.2272 5.21032 0.0225049 -0.0137934 -0.011404
55 1 4.72053 11.3489 2.95879 -0.000515318 -0.000157667 -0.00332273
56 2 5.49105 10.8656 2.90367 0.0399608 0.0307913 -0.000275171
57 2 4.1476 10.9013 2.38254 -0.018859 0.00728574 0.00462795
58 1 6.84924 10.3709 9.41788 0.00045482 -0.00503217 -1.46083e-05
59 2 4.91335 11.8798 7.13238 0.00775562 -0.0196668 -0.0245774
60 2 8.11771 11.3944 9.98523 -0.00187714 0.0105168 -0.0041268
61 1 7.0626 5.2684 5.77684 0.00156549 -0.00424317 0.00278012
62 2 7.30428 5.35991 6.72009 -0.000591104 0.0103377 0.0110484
63 2 5.58218 5.7809 5.9334 -0.0441438 -0.0163208 -0.00157403
64 1 5.51983 11.1442 7.17924 -0.00634704 -0.00320494 0.0027949
65 2 4.90878 10.3756 7.0189 -0.0168748 -0.016872 0.013024
66 2 12.1037 11.735 6.16025 0.00150531 0.020954 0.0169738
67 1 12.3704 11.7881 8.20594 0.000595272 0.00215002 -0.000257977
68 2 12.7705 12.7486 8.12845 -0.000730564 -0.0133961 0.00474304
69 2 12.5377 11.4721 9.08695 -0.0243151 -0.0309526 -0.00673058
70 1 9.82466 4.30157 4.82833 0.00408154 -0.00125082 0.000553196
71 2 9.97965 13.847 3.85276 -0.0168078 0.0258468 -0.0185718
72 2 8.96083 13.8147 5.13978 -0.0158 0.00256062 0.00456879
73 1 11.5173 8.34166 8.1446 -0.000275457 -0.00484813 -0.00152916
74 2 11.2191 7.52917 8.61686 -0.00814178 0.00440148 -0.0330198
75 2 12.2708 8.04484 7.61561 -0.0187671 0.0174958 0.00325441
76 1 3.09808 5.40945 9.84612 0.00058248 -0.00573399 -0.00193456
77 2 11.9865 5.61177 9.84248 -0.0186077 0.00142191 -0.0031291
78 2 3.60916 6.91685 10.9928 -0.00400224 0.00632033 0.0105752
79 1 3.14127 10.2654 10.6673 0.00290376 -0.000348841 -0.0027444