ITEM: TIMESTEP
0
ITEM: NUMBER OF ATOMS
96
ITEM: BOX BOUNDS pp pp pp
2.9236100000000000e+00 1.2773600000000000e+01
4.0306300000000004e+00 1.3880599999999999e+01
2.1372399999999998e+00 1.1987200000000000e+01
ITEM: ATOMS id type x y z vx vy vz
1 1 5.62945 4.33763 2.433 0.00269416 -0.00215341 0.00080773
2 2 5.42237 13.2252 2.35432 0.0280552 -0.00509935 -0.0228807
3 2 11 13.5263 11.9546 0.00128142 -0.0259159 -0.00152226
4 1 12.5031 12.9727 11.6491 0.00112699 0.00341229 0.000149573
5 2 12.5627 12.1713 11.1869 -0.00616602 -0.0166335 -0.00343055
6 2 3.23464 12.8312 2.54685 0.00427084 0.00629906 -0.00716423
7 1 11.6305 7.16358 3.78211 -0.00418274 -0.00213562 0.00173178
8 2 10.6856 6.90489 3.8317 0.0113713 0.005323 0.00070296
9 2 9.62036 8.46091 7.69237 0.00334636 0.00859849 -0.0136605
10 1 8.73336 8.68751 7.91757 0.00262013 -0.00186323 0.00574695
11 2 8.22412 7.89193 8.0043 -0.0171588 0.0094135 -0.00281637
12 2 7.53158 9.74676 9.0465 0.0389735 -0.0016387 0.0135552
13 1 6.24943 9.09201 11.9863 0.00322121 -0.00131131 -0.00173887
14 2 6.5372 9.72677 11.3468 0.00749918 -0.0332472 -0.0183148
15 2 5.37454 8.72215 11.6788 -0.0142639 -0.00566763 -0.00972607
16 1 8.57186 7.46323 11.955 0.00176298 -0.0013372 -0.00353381
17 2 8.50931 7.03565 3.73653 -0.0301568 -0.000354158 -0.0320796
18 2 7.77553 8.07609 11.9573 -0.0214916 -0.00260461 0.00182827
19 1 4.09928 7.51267 11.5119 0.00176428 -0.00369991 -0.000783569
20 2 3.78373 7.2736 2.52534 0.00208809 -0.0045469 -0.0182061
21 2 12.1666 10.058 11.2203 0.00577757 -0.0104294 0.0221028
22 1 10.3859 9.63086 11.9856 0.00120248 0.000609861 -0.00101801
23 2 10.2096 9.7995 3.08335 -0.00446604 -0.0119452 0.0198915
24 2 9.36598 8.07178 11.8238 0.021573 0.0155494 0.0137992
25 1 4.16626 8.53612 6.75211 0.00220966 0.00492134 0.00111729
26 2 3.67428 8.79508 5.9538 -0.0356786 0.0279022 0.00430193
27 2 12.4071 5.18901 4.07176 -0.0164843 -0.00891782 0.0111732
28 1 8.88528 6.84903 4.71443 -0.00330714 -0.00117372 -0.00080762
29 2 9.13472 5.84307 4.73659 -0.00850963 -0.0118509 -0.00649118
30 2 7.49132 6.05948 5.34639 0.000832192 -0.000403928 0.0146665
31 1 3.35456 9.70784 4.50781 -0.00352471 -0.00214267 0.00773522
32 2 12.6164 10.4596 4.65396 -0.0231433 -0.0109556 -0.00517822
33 2 4.1544 10.002 4.04695 -0.00616083 -0.00266069 -0.00279607
34 1 8.27394 5.46292 8.10826 -0.00342871 -0.00218102 -0.00267055
35 2 8.47433 4.52009 8.01193 -0.00360716 0.0112035 -0.00742984
36 2 7.65096 5.52994 8.88222 -0.0139053 -0.00125921 -0.00935151
37 1 8.98219 11.5841 10.5122 -0.00369597 -0.00138722 0.00594902
38 2 9.40855 12.1583 9.88255 -0.0019458 -0.000255092 -0.0102885
39 2 10.0165 10.3591 11.506 0.0227641 0.00533255 0.000141863
40 1 12.0859 12.0857 5.29238 -0.00101695 -0.00144749 -0.00084666
41 2 3.06983 13.6721 4.54538 0.00532476 0.00842326 -0.00653572
42 2 11.1539 12.3223 5.14713 0.0185393 0.00106213 0.0102965
43 1 3.39438 4.67299 4.09268 0.0044099 -0.000467593 0.0043526
44 2 11.6176 8.09929 3.8254 -0.0235133 -0.0136549 -0.0184468
45 2 4.8505 4.69306 2.84509 -0.0118543 0.00522978 0.00150023
46 1 9.71617 12.5483 8.01281 -0.00317235 -0.00924916 -0.0051615
47 2 9.13116 12.2095 7.24229 -0.0114604 -0.0243402 0.00206182
48 2 10.5901 12.0398 8.0262 0.0177859 0.0113602 -0.0119378
49 1 10.3837 6.14571 9.76397 0.00443954 -0.00248053 -0.00218948
50 2 9.75698 5.77786 9.1363 -0.0230477 0.000327228 -0.010483
51 2 9.83182 6.34291 10.6198 0.00427775 0.0110947 0.0158229
52 1 9.73792 9.70652 4.76874 0.00211522 0.00622642 0.00186981
53 2 9.39209 8.82268 4.92604 -0.00771847 -0.0188346 -0.00020351
54 2 9.09044 10.237 5.15077 0.017131 0.0172009 -0.0117697
55 1 4.72199 11.3482 2.97928 0.00135542 -0.00514588 0.000161139
56 2 5.50763 10.6509 2.96309 -0.0187731 0.00805305 0.0175348
57 2 4.10096 10.9294 2.26663 0.00659602 0.0406831 0.00829563
58 1 6.84455 10.4012 9.41609 -0.000864625 0.00383819 -0.000226056
59 2 4.94488 11.9089 7.33532 0.0166586 -0.0158853 0.033393
60 2 8.15709 11.2576 10.0984 -0.0123565 -0.0308181 0.0133564
61 1 7.06548 5.30153 5.73578 0.00159022 0.00365966 -0.00682019
62 2 7.39606 5.35603 6.75491 0.0180517 0.00324215 0.00989967
63 2 5.64459 5.83755 5.92441 -0.061674 0.00458792 0.00290989
64 1 5.55302 11.1748 7.15447 0.00448498 0.00705256 -0.00425861
65 2 4.98392 10.423 6.9382 -0.00449658 -0.00932943 -0.0137887
66 2 12.0598 11.6288 6.18676 -0.0110187 0.00642893 -0.01268
67 1 12.3707 11.7902 8.20831 5.40353e-05 0.000250608 0.0018502
68 2 12.7175 12.6534 8.0748 -0.00459782 -0.000110682 -0.0237495
69 2 12.6897 11.576 9.12624 0.0130104 -0.00443336 -0.00554082
70 1 9.80792 4.31256 4.82462 -0.00149574 0.00188461 0.000263784
71 2 9.99126 13.7094 3.97621 -0.00133022 -0.017039 -0.000767579
72 2 8.97149 13.7286 5.10316 -0.0157649 -0.021429 0.0035216
73 1 11.5242 8.35265 8.15384 0.00163643 0.000318757 0.000763988
74 2 11.3369 7.6694 8.7559 0.0199466 0.0250128 0.0227223
75 2 12.2983 8.08283 7.68695 -0.00209437 0.0231514 0.0192634
76 1 3.10481 5.428 9.87081 0.00273824 0.00105951 0.00500672
77 2 11.9764 5.68441 9.80421 -0.0100564 0.0111846 -0.00882673
78 2 3.64583 6.84348 10.9073 0.0247372 0.00692893 0.00754865
79 1 3.11895 10.2624 10.6808 -0.00373651 -0.000686572 0.00220011
80 2 3.40392 9.39725 10.3868 0.0265149 0.0084304 0.016574
81 2 6.3162 10.7315 8.61786 -0.0167191 0.0291092 0.00463999
82 1 6.08372 5.81427 9.7694 -0.00212068 -0.00362107 -0.00502341
83 2 5.50665 6.4892 10.0301 -0.00394706 -0.0324152 0.0140528
84 2 6.18104 5.26275 10.6006 -0.00805896 0.00537006 -0.0231803
85 1 10.0003 13.6862 2.18647 -0.00297903 0.0108024 0.00221706
86 2 9.58146 12.9763 11.5422 0.0149629 0.00430332 -0.0247486
87 2 3.12957 4.52919 10.2017 0.00383446 0.0173936 -0.0340402
88 1 7.97451 11.7668 5.86055 0.00115911 0.00391927 -0.00462542
89 2 7.09275 11.3525 6.14554 -0.0111029 0.0275658 -0.000370004
90 2 7.66719 12.6505 5.74848 -0.00582894 0.00426786 -0.0155353
91 1 4.55563 5.94734 6.10408 -0.00597212 -0.00163368 0.00129801
92 2 4.53477 7.66721 6.66341 0.00577769 -0.00577911 0.0012363
93 2 3.88134 4.75267 7.02612 0.00139322 -0.0190141 -0.0191711
94 1 4.06388 4.15834 7.83386 0.00534058 -0.00215869 0.00429948
95 2 4.20478 4.79598 8.56436 -0.00765586 -0.0110495 0.00439157
96 2 4.13376 5.5197 5.2631 0.0118001 -0.0181719 -0.0221435
ITEM: TIMESTEP
1
ITEM: NUMBER OF ATOMS
96
ITEM: BOX BOUNDS pp pp pp
2.9236100000000000e+00 1.2773600000000000e+01
4.0306300000000004e+00 1.3880599999999999e+01
2.1372399999999998e+00 1.1987200000000000e+01
ITEM: ATOMS id type x y z vx vy vz
1 1 5.63083 4.33648 2.43334 0.00282046 -0.00243786 0.00058858
2 2 5.4366 13.2234 2.34323 0.0285974 -0.00187428 -0.0212784
3 2 10.9998 13.5136 11.954 -0.00203608 -0.0243834 -0.000793827
4 1 12.5037 12.9745 11.6491 0.00137145 0.00369803 4.3817e-07
5 2 12.5595 12.1612 11.1842 -0.00658938 -0.0229105 -0.00696615
6 2 3.23714 12.8345 2.54409 0.00572586 0.00676824 -0.00391905
7 1 11.6284 7.16242 3.78296 -0.00424651 -0.00252461 0.00167897
8 2 10.692 6.90803 3.83222 0.0133217 0.00678967 0.00140876
9 2 9.62291 8.46464 7.68558 0.00656866 0.00622387 -0.0134315
10 1 8.73456 8.68667 7.92047 0.00220214 -0.00149573 0.00584589
11 2 8.21606 7.89578 8.00274 -0.0148821 0.00599109 -0.00350213
12 2 7.54982 9.74701 9.05337 0.033153 0.00321117 0.0137381
13 1 6.25104 9.09135 11.9855 0.00318834 -0.00136978 -0.00140175
14 2 6.54089 9.71056 11.3364 0.0073796 -0.0313987 -0.0233612
15 2 5.36792 8.71938 11.6738 -0.011567 -0.00522655 -0.00981196
16 1 8.57276 7.46261 11.9533 0.00182641 -0.00109722 -0.00343226
17 2 8.49548 7.03501 3.72197 -0.024611 -0.00234576 -0.0252961
18 2 7.7653 8.07423 11.9581 -0.0188523 -0.00503172 0.00147478
19 1 4.10012 7.51077 11.5114 0.00163669 -0.00385851 -0.00114756
20 2 3.78439 7.27134 2.51674 0.000332154 -0.00463149 -0.015452
21 2 12.1699 10.0526 11.2308 0.0076847 -0.0110516 0.0197468
22 1 10.3866 9.63108 11.9851 0.00143243 0.000265175 -0.00102071
23 2 10.2072 9.79361 3.09396 -0.00514481 -0.0115812 0.0218353
24 2 9.37592 8.07934 11.8311 0.0174316 0.0143623 0.0152993
25 1 4.16737 8.53868 6.75279 0.00223028 0.00530981 0.00154648
26 2 3.65625 8.80899 5.955 -0.0358077 0.0272268 0.00128075
27 2 12.3994 5.18487 4.07707 -0.0141286 -0.00771844 0.0100264
28 1 8.88358 6.84842 4.71388 -0.00350812 -0.0012728 -0.00146757
29 2 9.13067 5.83831 4.733 -0.00772782 -0.00689402 -0.00787758
30 2 7.49243 6.06104 5.35244 0.00356943 0.00668519 0.00933374
31 1 3.35276 9.70665 4.51168 -0.00366736 -0.00259908 0.00775618
32 2 12.6047 10.4551 4.65144 -0.0234404 -0.00701536 -0.00497078
33 2 4.15161 10.0016 4.04523 -0.00521901 0.00118905 -0.00394521
34 1 8.27223 5.46185 8.10692 -0.00342045 -0.00206375 -0.0026767
35 2 8.47291 4.52519 8.00861 -0.00198651 0.00865353 -0.0058276
36 2 7.64361 5.52916 8.87725 -0.0155181 -0.00191578 -0.0104809
37 1 8.98039 11.5834 10.5153 -0.00350966 -0.00137295 0.00633833
38 2 9.40788 12.1586 9.87588 -0.00120139 0.00079055 -0.0160693
39 2 10.0271 10.3627 11.5052 0.0196117 0.00917571 -0.00305538
40 1 12.0854 12.0849 5.29203 -0.00113429 -0.00163371 -0.00059311
41 2 3.07318 13.6773 4.54159 0.0080297 0.0117619 -0.00836894
42 2 11.1637 12.3228 5.15254 0.0199123 0.00110283 0.0110756
43 1 3.39647 4.67268 4.09491 0.00395067 -0.000735182 0.00454132
44 2 11.6058 8.09329 3.8163 -0.0235202 -0.00974687 -0.0179479
45 2 4.84422 4.69591 2.84615 -0.0126827 0.00552996 0.00239016
46 1 9.71456 12.5436 8.01017 -0.00326152 -0.00945324 -0.00537297
47 2 9.12696 12.1975 7.24471 -0.00528384 -0.0235722 0.00756695
48 2 10.5977 12.0461 8.0198 0.0125226 0.0140108 -0.013665
49 1 10.3858 6.14455 9.76302 0.00402662 -0.00217204 -0.00162103
50 2 9.74514 5.77783 9.13077 -0.023641 -4.55459e-05 -0.010944
51 2 9.83509 6.34797 10.6258 0.00899288 0.00899726 0.00793752
52 1 9.73906 9.70956 4.76965 0.00245224 0.00588458 0.00174715
53 2 9.38838 8.81252 4.92582 -0.00690893 -0.0206553 -0.000749303
54 2 9.09761 10.2474 5.14573 0.0113643 0.0242042 -0.008337
55 1 4.72274 11.3454 2.97923 0.00164769 -0.00594489 -0.000277815
56 2 5.49627 10.657 2.97182 -0.0259237 0.0156657 0.0171661
57 2 4.10546 10.951 2.27214 0.0109089 0.0448393 0.0129911
58 1 6.84416 10.403 9.41594 -0.000694288 0.00349776 -0.000373185
59 2 4.95296 11.9008 7.35203 0.0151883 -0.0160064 0.0335181
60 2 8.15005 11.242 10.1046 -0.0152427 -0.0310904 0.0115361
61 1 7.06627 5.30324 5.73252 0.00156268 0.0032068 -0.00615573
62 2 7.40445 5.35744 6.75874 0.0150879 0.00225598 0.00465283
63 2 5.61182 5.8396 5.92629 -0.0676687 0.00351692 0.00468191
64 1 5.55527 11.1783 7.15234 0.00449634 0.00704692 -0.00427744
65 2 4.98131 10.4182 6.93142 -0.00552164 -0.00930468 -0.0131562
66 2 12.0543 11.6331 6.17922 -0.0107662 0.0103926 -0.0168943
67 1 12.3707 11.7902 8.20932 -9.33949e-05 -0.000141331 0.00215653
68 2 12.7159 12.6553 8.06217 -0.00184215 0.00746389 -0.0265259
69 2 12.6956 11.5731 9.12283 0.0108204 -0.00704119 -0.00802615
70 1 9.80713 4.31346 4.8248 -0.00171082 0.00166181 0.000442634
71 2 9.99077 13.7013 3.97486 -0.000689979 -0.0151352 -0.00428029
72 2 8.964 13.7183 5.10521 -0.0134715 -0.0194845 0.00448767
73 1 11.525 8.35288 8.15418 0.00140658 0.000645862 0.000625102
74 2 11.3465 7.68066 8.76831 0.0186118 0.0198413 0.0270694
75 2 12.2984 8.0944 7.69604 0.00298462 0.0228636 0.0167813
76 1 3.10621 5.42858 9.8733 0.00284064 0.00131042 0.00492604
77 2 11.9719 5.68949 9.79988 -0.0077937 0.00900539 -0.00844606
78 2 3.65883 6.84758 10.9118 0.0267823 0.00886775 0.00960604
79 1 3.11705 10.2621 10.6819 -0.00385335 -0.000582685 0.00236598
80 2 3.41717 9.40126 10.3953 0.0264204 0.00750095 0.0174038
81 2 6.30843 10.7458 8.62061 -0.0138091 0.0276012 0.0064661
82 1 6.08274 5.81235 9.76693 -0.00177473 -0.00405826 -0.00490627
83 2 5.50372 6.4739 10.0377 -0.0082137 -0.0282055 0.0163987
84 2 6.17661 5.26617 10.5881 -0.00936227 0.00763333 -0.0259768
85 1 9.99881 13.6916 2.1876 -0.00295908 0.0108561 0.0022917
86 2 9.58856 12.9781 11.5298 0.0132116 0.00336051 -0.024522
87 2 3.13111 4.5376 10.1853 0.00229359 0.0152194 -0.0312712
88 1 7.97499 11.7687 5.85828 0.0007455 0.00381536 -0.00445997
89 2 7.08897 11.3664 6.14509 -0.00398481 0.02764 -0.00140594
90 2 7.66448 12.6537 5.7404 -0.00477446 0.00840587 -0.0168234
91 1 4.55271 5.94653 6.10467 -0.00575945 -0.001614 0.00104315
92 2 4.5378 7.66293 6.66334 0.00583465 -0.0104862 -0.0016644
93 2 3.88249 4.7428 7.0167 0.00329671 -0.0205291 -0.0178953
94 1 4.06656 4.15727 7.83599 0.00535045 -0.00216043 0.00418899
95 2 4.20091 4.7903 8.56682 -0.0078303 -0.0112982 0.00536304
96 2 4.14011 5.5111 5.25264 0.0132049 -0.0161147 -0.0195524
ITEM: TIMESTEP
2
ITEM: NUMBER OF ATOMS
96
ITEM: BOX BOUNDS pp pp pp
2.9236100000000000e+00 1.2773600000000000e+01
4.0306300000000004e+00 1.3880599999999999e+01
2.1372399999999998e+00 1.1987200000000000e+01
ITEM: ATOMS id type x y z vx vy vz
1 1 5.63227 4.33519 2.43359 0.00290237 -0.00266128 0.00040458
2 2 5.45097 13.2233 2.33304 0.0285756 0.00153848 -0.0193451
3 2 10.998 13.5019 11.9538 -0.00526566 -0.0222072 0.00037534
4 1 12.5045 12.9764 11.6491 0.00161587 0.00385863 -0.00021487
5 2 12.5561 12.1484 11.1799 -0.00707029 -0.0272023 -0.0092466
6 2 3.24037 12.838 2.54293 0.007037 0.00720576 -0.000882001
7 1 11.6263 7.16106 3.78379 -0.00422894 -0.00291542 0.00162111
8 2 10.6989 6.91168 3.83311 0.0136487 0.0073374 0.00214651
9 2 9.62693 8.46713 7.67894 0.00905479 0.0037061 -0.0130035
10 1 8.73556 8.68601 7.92342 0.00180805 -0.00112254 0.00594723
11 2 8.20924 7.89792 8.0008 -0.012185 0.00266546 -0.00432241
12 2 7.56473 9.74997 9.06024 0.0259418 0.00894831 0.0135346
13 1 6.25262 9.09064 11.9849 0.0030846 -0.00147704 -0.00110267
14 2 6.54458 9.69537 11.3234 0.00742741 -0.0293425 -0.0283691
15 2 5.36297 8.71692 11.669 -0.00768416 -0.00443184 -0.00929314
16 1 8.57369 7.46213 11.9516 0.00189621 -0.000793743 -0.00329863
17 2 8.4847 7.0333 3.71123 -0.0181143 -0.0045017 -0.0171504
18 2 7.75668 8.07106 11.9588 -0.0152162 -0.00775569 0.00103256
19 1 4.10092 7.50881 11.5108 0.0015958 -0.00390363 -0.00149411
20 2 3.78406 7.26897 2.50989 -0.00178651 -0.00495047 -0.0113999
21 2 12.1743 10.0469 11.24 0.00976375 -0.0117422 0.0171881
22 1 10.3873 9.63113 11.9846 0.00164644 -8.47941e-05 -0.000940086
23 2 10.2045 9.78792 3.10519 -0.00574951 -0.0111626 0.0222713
24 2 9.38341 8.08614 11.8391 0.0119613 0.0126407 0.0168926
25 1 4.16849 8.54143 6.75366 0.0022333 0.00565888 0.00188707
26 2 3.63847 8.82231 5.95508 -0.0346025 0.0255621 -0.0001844
27 2 12.393 5.18129 4.08179 -0.0111226 -0.00663625 0.00882522
28 1 8.88177 6.84776 4.71296 -0.0037625 -0.00137631 -0.00224064
29 2 9.12699 5.83618 4.72871 -0.00696852 -0.00155475 -0.00926459
30 2 7.49489 6.06617 5.35572 0.00606625 0.0136171 0.0038096
31 1 3.35089 9.70524 4.51557 -0.00381222 -0.00302568 0.00777525
32 2 12.593 10.4526 4.64899 -0.023236 -0.00348803 -0.00487766
33 2 4.14918 10.0032 4.043 -0.00479713 0.00489691 -0.00473369
34 1 8.27052 5.46086 8.10558 -0.00340285 -0.00188863 -0.0026779
35 2 8.47234 4.52874 8.0061 -0.000219841 0.00520197 -0.00421377
36 2 7.63544 5.52802 8.87174 -0.0171458 -0.00264781 -0.0115172
37 1 8.97868 11.5827 10.5185 -0.00332999 -0.00132776 0.00664784
38 2 9.40735 12.1591 9.86648 -0.00146296 0.000717315 -0.0210368
39 2 10.0361 10.3683 11.5029 0.0163893 0.0129487 -0.00584646
40 1 12.0848 12.0841 5.29179 -0.00116126 -0.00181231 -0.000396219
41 2 3.07786 13.6839 4.53701 0.0105823 0.0139921 -0.00962436
42 2 11.1738 12.3234 5.15821 0.0195321 0.00170543 0.0113234
43 1 3.39833 4.67225 4.09722 0.00346366 -0.000928111 0.00468072
44 2 11.5941 8.08954 3.80745 -0.0231751 -0.00489194 -0.0174751
45 2 4.83782 4.69859 2.84748 -0.0123616 0.00462151 0.00256891
46 1 9.71291 12.5388 8.00744 -0.00333514 -0.00965031 -0.00555643
47 2 9.12588 12.1859 7.24986 0.000781845 -0.0227903 0.0127598
48 2 10.6026 12.0538 8.01254 0.0071195 0.0165116 -0.0153428
49 1 10.3877 6.14354 9.76235 0.00351714 -0.00189744 -0.00110407
50 2 9.73334 5.77781 9.12536 -0.0229401 0.000354448 -0.0100916
51 2 9.84081 6.35191 10.6277 0.0139361 0.00669871 -0.00048906
52 1 9.74037 9.7124 4.77049 0.00276508 0.00542756 0.00162598
53 2 9.38518 8.80202 4.92529 -0.00571448 -0.0202314 -0.0014533
54 2 9.1018 10.2612 5.14243 0.0055715 0.0306558 -0.004998
55 1 4.72364 11.3423 2.979 0.00191454 -0.00652308 -0.000572697
56 2 5.48171 10.6666 2.98026 -0.031294 0.0214271 0.0163436
57 2 4.11187 10.9742 2.27962 0.0139962 0.04752 0.0159469
58 1 6.84386 10.4047 9.41572 -0.000498028 0.0031415 -0.000524837
59 2 4.96007 11.8929 7.36884 0.0128838 -0.0152463 0.0337505
60 2 8.14185 11.2265 10.1099 -0.0169071 -0.0306205 0.0100968
61 1 7.06704 5.30474 5.72962 0.00153915 0.00280275 -0.00540037
62 2 7.41115 5.35829 6.75956 0.0113652 0.000990764 -0.00196386
63 2 5.57692 5.84107 5.92909 -0.0699605 0.0023264 0.00662451
64 1 5.55752 11.1818 7.15019 0.00450394 0.00691249 -0.00430378
65 2 4.9784 10.4137 6.92504 -0.00571419 -0.0082177 -0.0121509
66 2 12.049 11.6392 6.16987 -0.0102699 0.0135302 -0.019742
67 1 12.3706 11.7901 8.21047 -0.000238614 -0.000489628 0.00242018
68 2 12.7157 12.6609 8.04827 0.000847409 0.014086 -0.0286953
69 2 12.7005 11.569 9.11821 0.00881083 -0.0092071 -0.010354
70 1 9.80621 4.31422 4.82506 -0.00200254 0.00135593 0.000583132
71 2 9.99057 13.6943 3.97193 -0.000174319 -0.0125863 -0.00703479
72 2 8.95802 13.7091 5.10765 -0.009789 -0.016664 0.00507483
73 1 11.5256 8.3533 8.15447 0.00109873 0.00100308 0.000510294
74 2 11.3555 7.68924 8.78297 0.0173894 0.0145982 0.0314385
75 2 12.3013 8.10569 7.70373 0.0090678 0.022135 0.0138227
76 1 3.10765 5.42931 9.87574 0.00290408 0.00168013 0.00479089
77 2 11.9686 5.69342 9.79576 -0.00495885 0.00660279 -0.0079756
78 2 3.67261 6.85235 10.9169 0.0278536 0.00951819 0.0102939
79 1 3.1151 10.2618 10.6832 -0.00398242 -0.000460832 0.00253274
80 2 3.43034 9.40475 10.4042 0.0262161 0.00639969 0.0182574
81 2 6.30239 10.7591 8.62433 -0.00993515 0.0252976 0.00835927
82 1 6.08195 5.81021 9.76449 -0.00142747 -0.0044559 -0.00487566
83 2 5.49844 6.46099 10.0465 -0.0131329 -0.0230572 0.0185341
84 2 6.17168 5.27038 10.5746 -0.0100156 0.00841523 -0.0273277
85 1 9.99734 13.6971 2.18876 -0.00290639 0.0108053 0.00230936
86 2 9.59467 12.9797 11.5177 0.0110295 0.00327607 -0.0236831
87 2 3.13186 4.54441 10.1704 0.00067811 0.0111301 -0.0278373
88 1 7.97526 11.7706 5.85609 0.000321326 0.00376925 -0.00430606
89 2 7.08877 11.3801 6.14413 0.00298344 0.0270818 -0.00234249
90 2 7.66242 12.6589 5.73166 -0.00327295 0.0121079 -0.0181096
91 1 4.54987 5.94573 6.10512 -0.00566285 -0.00160017 0.000766011
92 2 4.5406 7.65672 6.66175 0.0048715 -0.0133713 -0.00481436
93 2 3.88464 4.73214 7.00822 0.00535659 -0.0221134 -0.0154743
94 1 4.06923 4.15618 7.83805 0.00533814 -0.00221745 0.00402232
95 2 4.19695 4.78468 8.56972 -0.0080051 -0.0108252 0.00614951
96 2 4.14696 5.50359 5.24355 0.0137149 -0.0139116 -0.0167917
ITEM: TIMESTEP
3
ITEM: NUMBER OF ATOMS
96
ITEM: BOX BOUNDS pp pp pp
2.9236100000000000e+00 1.2773600000000000e+01
4.0306300000000004e+00 1.3880599999999999e+01
2.1372399999999998e+00 1.1987200000000000e+01
ITEM: ATOMS id type x y z vx vy vz
1 1 5.63374 4.33381 2.43375 0.0029435 -0.00281199 0.000257577
2 2 5.46518 13.225 2.32389 0.0279979 0.00486188 -0.0171565
3 2 10.9946 13.4914 11.9543 -0.00812001 -0.0194585 0.00194265
4 1 12.5053 12.9784 11.6489 0.00186346 0.0038741 -0.000490403
5 2 12.5525 12.134 11.1749 -0.00756477 -0.0291997 -0.0100912
6 2 3.24418 12.8417 2.5432 0.00802411 0.00762601 0.00168298
7 1 11.6242 7.1595 3.78458 -0.00412473 -0.00327576 0.00155915
8 2 10.7056 6.91537 3.83437 0.0123058 0.00693843 0.00291328
9 2 9.63197 8.46835 7.67257 0.0105701 0.00119337 -0.0122906
10 1 8.73637 8.68555 7.92641 0.00145387 -0.00076354 0.00604425
11 2 8.20387 7.89845 7.99842 -0.00906135 -0.000401617 -0.00526411
12 2 7.57576 9.75596 9.0669 0.0179028 0.0150491 0.0128461
13 1 6.25413 9.08987 11.9844 0.00293091 -0.0016087 -0.000864197
14 2 6.54832 9.68122 11.308 0.00752914 -0.027391 -0.0329557
15 2 5.36024 8.71495 11.6645 -0.00283748 -0.00337503 -0.0082032
16 1 8.57465 7.46182 11.95 0.00197049 -0.000448822 -0.00313866
17 2 8.47736 7.03051 3.70482 -0.0110463 -0.0066298 -0.00829787
18 2 7.75008 8.06647 11.9592 -0.0109107 -0.010598 0.00052637
19 1 4.10172 7.50686 11.5099 0.00163638 -0.00383387 -0.00179429
20 2 3.7826 7.26639 2.50534 -0.00416048 -0.00541984 -0.00642161
21 2 12.1797 10.0409 11.248 0.0118248 -0.0125012 0.0145706
22 1 10.3882 9.631 11.9841 0.0018306 -0.000411144 -0.00078908
23 2 10.2014 9.78245 3.11624 -0.00626715 -0.0106765 0.021171
24 2 9.38788 8.09198 11.8479 0.00556527 0.010562 0.0184731
25 1 4.16961 8.54434 6.75467 0.00221564 0.00595252 0.00213408
26 2 3.62164 8.83455 5.95482 -0.0320469 0.0229945 -0.000130409
27 2 12.3882 5.17823 4.08589 -0.00763339 -0.00563735 0.00759571
28 1 8.87982 6.84704 4.71164 -0.00406151 -0.0014711 -0.0030794
29 2 9.1237 5.83675 4.72374 -0.00608822 0.00369698 -0.0105595
30 2 7.4985 6.07465 5.35625 0.00805239 0.0198722 -0.00154757
31 1 3.34895 9.70363 4.51946 -0.00396011 -0.00340182 0.00778693
32 2 12.5815 10.4517 4.64656 -0.0224237 -0.000585671 -0.00488437
33 2 4.14681 10.0065 4.04049 -0.0050153 0.00831976 -0.00505156
34 1 8.26882 5.45996 8.10425 -0.00337518 -0.00167574 -0.00266831
35 2 8.47269 4.53039 8.0044 0.00161458 0.0011863 -0.00259776
36 2 7.62646 5.52651 8.86573 -0.0187185 -0.00344157 -0.0125136
37 1 8.97706 11.5821 10.5219 -0.00315984 -0.00124743 0.00685902
38 2 9.40642 12.1593 9.85484 -0.00277925 -0.000600123 -0.0249429
39 2 10.0435 10.3757 11.4994 0.0132822 0.0162298 -0.00796343
40 1 12.0842 12.0831 5.29163 -0.00109185 -0.00197486 -0.000278957
41 2 3.08376 13.6913 4.53197 0.0128339 0.0149099 -0.0101923
42 2 11.1833 12.3245 5.16386 0.0173343 0.00290577 0.0110297
43 1 3.39994 4.67175 4.09959 0.0029687 -0.00103459 0.00476411
44 2 11.5826 8.0884 3.79883 -0.0224646 0.000429431 -0.0170565
45 2 4.83186 4.70053 2.84872 -0.0109363 0.00261374 0.00207335
46 1 9.71122 12.534 8.00462 -0.00339666 -0.00981518 -0.00568727
47 2 9.12774 12.1747 7.25747 0.00634873 -0.0221541 0.0172347
48 2 10.6048 12.0627 8.00445 0.00203214 0.0186503 -0.0169173
49 1 10.3893 6.14265 9.76192 0.0029388 -0.00165816 -0.000664304
50 2 9.7222 5.77818 9.12068 -0.0210807 0.00141886 -0.0081176
51 2 9.84902 6.35467 10.6254 0.0187639 0.00435118 -0.00887389
52 1 9.74183 9.71499 4.77127 0.00302155 0.00490036 0.00152273
53 2 9.38267 8.79229 4.92437 -0.00420717 -0.0176661 -0.00226295
54 2 9.10318 10.278 5.14073 0.000338223 0.0359896 -0.00210201
55 1 4.72466 11.3389 2.97866 0.00214108 -0.00683892 -0.000698871
56 2 5.46498 10.6785 2.98817 -0.034286 0.024832 0.0151157
57 2 4.11946 10.9985 2.28809 0.0155011 0.048635 0.0167752
58 1 6.84366 10.4062 9.41542 -0.000292378 0.00278399 -0.000659463
59 2 4.96584 11.8856 7.38579 0.00992412 -0.013787 0.0340791
60 2 8.13314 11.2114 10.1147 -0.0171968 -0.0293234 0.00915316
61 1 7.06781 5.30605 5.72712 0.00154532 0.00246948 -0.00460417
62 2 7.41582 5.35843 6.75677 0.00708005 -0.000490353 -0.00956504
63 2 5.54186 5.84192 5.93291 -0.068234 0.00109445 0.00871962
64 1 5.55977 11.1853 7.14803 0.00449754 0.00666615 -0.0043379
65 2 4.9756 10.41 6.91927 -0.00509965 -0.00614591 -0.0107928
66 2 12.0441 11.6466 6.15948 -0.00955415 0.015651 -0.0208519
67 1 12.3705 11.7897 8.21174 -0.000369262 -0.000754679 0.0026246
68 2 12.7167 12.6694 8.03347 0.003295 0.019145 -0.0300538
69 2 12.7045 11.5639 9.11248 0.00705123 -0.0108968 -0.0124527
70 1 9.80513 4.31481 4.82538 -0.00234871 0.000975025 0.000676182
71 2 9.99059 13.6887 3.96783 0.000156655 -0.00938983 -0.00894522
72 2 8.95421 13.7016 5.11028 -0.00497094 -0.013105 0.00531681
73 1 11.5261 8.35389 8.1547 0.000739945 0.00134115 0.00042979
74 2 11.3639 7.69526 8.79975 0.0164607 0.00984994 0.0352537
75 2 12.3074 8.11654 7.70987 0.0155705 0.021177 0.0107822
76 1 3.10911 5.43026 9.87809 0.00293513 0.00214039 0.00461444
77 2 11.9669 5.69609 9.7919 -0.0016624 0.00405654 -0.00743943
78 2 3.68668 6.8571 10.922 0.0279079 0.00876016 0.00952093
79 1 3.11307 10.2616 10.6845 -0.00411484 -0.000327385 0.00268882
80 2 3.44338 9.40766 10.4135 0.0259149 0.00522954 0.0191411
81 2 6.29849 10.7711 8.62897 -0.00541484 0.0224538 0.0100796
82 1 6.08132 5.80789 9.76205 -0.00110914 -0.00477154 -0.00493131
83 2 5.49058 6.45084 10.0563 -0.0182629 -0.0174722 0.020242
84 2 6.16659 5.27459 10.5608 -0.00996961 0.00754265 -0.0270359
85 1 9.9959 13.7024 2.18991 -0.00283327 0.0106527 0.0022707
86 2 9.59959 12.9814 11.5061 0.00841882 0.00403445 -0.0222371
87 2 3.13179 4.54873 10.1574 -0.000972227 0.00548614 -0.0239168
88 1 7.97531 11.7725 5.85397 -8.57824e-05 0.00380026 -0.00418003
89 2 7.09195 11.3935 6.14275 0.00932756 0.0258061 -0.00304483
90 2 7.6612 12.6658 5.72229 -0.00136029 0.0150858 -0.0193153
91 1 4.54705 5.94493 6.10543 -0.00571533 -0.00158423 0.000479231
92 2 4.54267 7.64956 6.65853 0.00286928 -0.0142656 -0.00808457
93 2 3.88784 4.72068 7.00123 0.00749128 -0.0236617 -0.0121177
94 1 4.07189 4.15505 7.84001 0.00530519 -0.00233718 0.00381249
95 2 4.1929 4.77948 8.57297 -0.0081933 -0.00968593 0.00676556
96 2 4.15383 5.49719 5.23585 0.0132278 -0.0116569 -0.0140453
ITEM: TIMESTEP
4
ITEM: NUMBER OF ATOMS
96
ITEM: BOX BOUNDS pp pp pp
2.9236100000000000e+00 1.2773600000000000e+01
4.0306300000000004e+00 1.3880599999999999e+01
2.1372399999999998e+00 1.1987200000000000e+01
ITEM: ATOMS id type x y z vx vy vz
1 1 5.63521 4.33238 2.43385 0.00295368 -0.00288142 0.00014528
2 2 5.47897 13.2282 2.31589 0.0268944 0.00779403 -0.0148017
3 2 10.9898 13.4825 11.9557 -0.0103657 -0.0162315 0.00384915
4 1 12.5063 12.9803 11.6486 0.0021149 0.00374084 -0.000815034
5 2 12.5485 12.1192 11.1698 -0.00802236 -0.0288329 -0.00947357
6 2 3.24839 12.8456 2.54461 0.0085518 0.00804024 0.00357985
7 1 11.6221 7.15778 3.78535 -0.00393955 -0.00357329 0.00149353
8 2 10.7112 6.91862 3.83602 0.00940742 0.00563359 0.00370805
9 2 9.6375 8.46833 7.66665 0.0109816 -0.0011913 -0.0112292
10 1 8.73702 8.68525 7.92946 0.00115056 -0.000434096 0.0061309
11 2 8.20018 7.89752 7.99553 -0.00553384 -0.00309294 -0.00630307
12 2 7.58264 9.76502 9.07308 0.00960098 0.0209895 0.0115615
13 1 6.25555 9.08903 11.984 0.00275197 -0.00174003 -0.000705748
14 2 6.55211 9.66798 11.2905 0.0075816 -0.0258122 -0.0367503
15 2 5.36014 8.71355 11.6608 0.00266047 -0.00218128 -0.00660875
16 1 8.57566 7.46168 11.9484 0.00204804 -8.59161e-05 -0.00296076
17 2 8.47365 7.02667 3.70294 -0.00382112 -0.00855539 0.000629181
18 2 7.74577 8.06046 11.9593 -0.00628058 -0.0133838 -1.45011e-05
19 1 4.10255 7.50498 11.509 0.00174489 -0.00365845 -0.00202084
20 2 3.7799 7.26355 2.50347 -0.00664302 -0.00592937 -0.00100606
21 2 12.1861 10.0344 11.2546 0.0136755 -0.0133294 0.0120431
22 1 10.3892 9.63071 11.9838 0.00197465 -0.000688822 -0.000584471
23 2 10.1982 9.77724 3.12636 -0.00669271 -0.0101068 0.0186179
24 2 9.38898 8.0967 11.8576 -0.00131988 0.00832006 0.0199424
25 1 4.17071 8.54738 6.75579 0.0021752 0.00618281 0.00229274
26 2 3.60643 8.8453 5.95495 -0.0282458 0.0196757 0.00126706
27 2 12.3853 5.17565 4.08938 -0.00385087 -0.00468322 0.00636304
28 1 8.87771 6.84629 4.70988 -0.00438775 -0.00154037 -0.00393961
29 2 9.1209 5.83987 4.71815 -0.00483297 0.00838958 -0.0117228
30 2 7.50294 6.08604 5.35418 0.00918584 0.0250263 -0.00636987
31 1 3.34693 9.70184 4.52335 -0.00411243 -0.00371182 0.00778586
32 2 12.5705 10.452 4.6441 -0.0209568 0.00154828 -0.00495748
33 2 4.14417 10.0115 4.03795 -0.00592263 0.0113403 -0.00483458
34 1 8.26714 5.45918 8.10291 -0.0033377 -0.00144894 -0.00264285
35 2 8.47396 4.52993 8.0035 0.00342256 -0.00299107 -0.000986494
36 2 7.61672 5.52458 8.85923 -0.020152 -0.0042822 -0.0135335
37 1 8.97552 11.5815 10.5254 -0.00300109 -0.00113197 0.00696246
38 2 9.40457 12.1585 9.84154 -0.00509247 -0.0031588 -0.0276345
39 2 10.0494 10.3845 11.495 0.0104389 0.0186585 -0.00920187
40 1 12.0837 12.0821 5.29151 -0.000930215 -0.00211305 -0.000259963
41 2 3.09069 13.6988 4.52682 0.014659 0.0143794 -0.0100005
42 2 11.1911 12.3263 5.16924 0.0134057 0.00470962 0.0101949
43 1 3.4013 4.67122 4.10199 0.0024851 -0.00104767 0.00478784
44 2 11.5716 8.08997 3.7904 -0.0213769 0.00566558 -0.0167043
45 2 4.82688 4.7012 2.84955 -0.00856697 -0.000309967 0.00100395
46 1 9.70951 12.529 8.00175 -0.00344979 -0.00992486 -0.00574417
47 2 9.13222 12.1638 7.26709 0.0110515 -0.0218292 0.0206289
48 2 10.6047 12.0725 7.99562 -0.00231126 0.0202553 -0.0183428
49 1 10.3907 6.14188 9.76168 0.00232489 -0.00145365 -0.000322604
50 2 9.71226 5.77923 9.11724 -0.0183036 0.00299074 -0.0053042
51 2 9.85958 6.35626 10.6189 0.0231361 0.00211772 -0.0166203
52 1 9.74339 9.7173 4.77201 0.00319828 0.00435035 0.00144914
53 2 9.38097 8.78436 4.92303 -0.00248747 -0.0131799 -0.0031123
54 2 9.10214 10.2972 5.14033 -0.00385786 0.0397272 7.73581e-05
55 1 4.72578 11.3354 2.9783 0.0023121 -0.00686744 -0.00064351
56 2 5.44742 10.6914 2.99537 -0.0344473 0.0254982 0.0135446
57 2 4.12737 11.0229 2.2964 0.0152133 0.0482046 0.0152395
58 1 6.84356 10.4075 9.41506 -9.53559e-05 0.00243827 -0.000756239
59 2 4.96999 11.8791 7.40292 0.00654557 -0.0118736 0.0344591
60 2 8.12465 11.1972 10.1191 -0.0160609 -0.0271502 0.00880074
61 1 7.06859 5.30721 5.72502 0.00159374 0.0022191 -0.00381742
62 2 7.41823 5.3578 6.75 0.00248684 -0.00211536 -0.0176439
63 2 5.50869 5.84216 5.93781 -0.0624147 -0.000125548 0.0109303
64 1 5.56201 11.1885 7.14585 0.00446667 0.00633277 -0.00437754
65 2 4.9733 10.4075 6.91425 -0.00375248 -0.00322349 -0.00912562
66 2 12.0395 11.6548 6.14901 -0.008629 0.0166103 -0.0199336
67 1 12.3702 11.7893 8.21309 -0.000476065 -0.000906617 0.0027554
68 2 12.719 12.68 8.01822 0.0053735 0.0222046 -0.0304394
69 2 12.7076 11.5581 9.10576 0.00560202 -0.012108 -0.0142451
70 1 9.80386 4.3152 4.82574 -0.00272406 0.000533475 0.000717111
71 2 9.99073 13.6849 3.96298 0.000270946 -0.00560015 -0.010008
72 2 8.95305 13.696 5.11296 0.000582457 -0.00905026 0.00531333
73 1 11.5263 8.35464 8.15489 0.000364445 0.00161685 0.000390511
74 2 11.372 7.69909 8.81822 0.0159545 0.00607019 0.0379876
75 2 12.3169 8.12687 7.71451 0.0218541 0.0202009 0.00805634
76 1 3.11059 5.43145 9.88035 0.00293903 0.0026572 0.00441962
77 2 11.9669 5.69747 9.78832 0.00197632 0.00144457 -0.0068629
78 2 3.70052 6.86111 10.9264 0.0269902 0.00659576 0.00732624
79 1 3.11098 10.2615 10.6859 -0.00424025 -0.000189025 0.0028242
80 2 3.45626 9.40998 10.4233 0.0255303 0.00409196 0.020058