ITEM: TIMESTEP
0
ITEM: NUMBER OF ATOMS
96
ITEM: BOX BOUNDS pp pp pp
2.9236100000000000e+00 1.2773600000000000e+01
4.0306300000000004e+00 1.3880599999999999e+01
2.1372399999999998e+00 1.1987200000000000e+01
ITEM: ATOMS id type x y z vx vy vz
1 1 5.62581 4.34009 2.43121 0.00211988 -0.00109217 0.00159729
2 2 5.38318 13.2386 2.39101 0.0233299 -0.011635 -0.0252789
3 2 10.9916 13.5665 11.9571 0.00875499 -0.0263442 -0.000889046
4 1 12.502 12.9685 11.6487 0.000331733 0.00221095 0.000247691
5 2 12.5713 12.1784 11.1817 -0.00551674 0.00769244 0.0105283
6 2 3.23108 12.8229 2.5642 0.00116861 0.00470311 -0.0148389
7 1 11.6364 7.16602 3.77941 -0.00367619 -0.00123356 0.00184753
8 2 10.6772 6.90269 3.83211 -0.0019329 -0.00351269 -0.00115839
9 2 9.62357 8.44381 7.71314 -0.00741695 0.0131448 -0.0140979
10 1 8.7285 8.69102 7.90914 0.00380547 -0.00268859 0.00552761
11 2 8.25379 7.87063 8.00739 -0.0217891 0.0182126 -0.00152053
12 2 7.4663 9.75541 9.0274 0.0436928 -0.00633853 0.0116253
13 1 6.2448 9.09408 2.13973 0.00278225 -0.00161722 -0.00275798
14 2 6.52475 9.7789 11.3642 0.00978595 -0.0345867 -0.00618781
15 2 5.39792 8.73035 11.6913 -0.0145821 -0.00451007 -0.00603418
16 1 8.56933 7.4655 11.9604 0.00163798 -0.00150723 -0.00364266
17 2 8.56287 7.03302 3.79309 -0.0384616 0.00269318 -0.0381925
18 2 7.8095 8.07612 11.9541 -0.0209779 0.00135464 0.00222791
19 1 4.09609 7.51756 11.5123 0.00260132 -0.00268709 0.000165299
20 2 3.77798 7.28113 2.55404 0.00480054 -0.00603105 -0.017253
21 2 12.161 10.0725 11.183 0.0026123 -0.00902213 0.0268196
22 1 10.3846 9.62931 11.9868 0.000585896 0.00132549 -0.000482903
23 2 10.2146 9.81807 3.06186 -0.00226097 -0.0126821 0.007113
24 2 9.32974 8.04802 11.8058 0.0231686 0.0146393 0.010817
25 1 4.16303 8.52963 6.7516 0.00208134 0.00378157 -0.00047835
26 2 3.72402 8.75477 5.93641 -0.0292356 0.0242526 0.0204654
27 2 12.4346 5.20555 4.0527 -0.0185411 -0.013427 0.0140315
28 1 8.88995 6.85062 4.71469 -0.00301681 -0.000988674 6.95238e-05
29 2 9.1499 5.86903 4.74358 -0.012383 -0.0202682 -0.00322207
30 2 7.49585 6.07432 5.31447 -0.00609603 -0.0173022 0.0259662
31 1 3.35953 9.71004 4.49624 -0.00311622 -0.000849964 0.00770709
32 2 12.6495 10.4851 4.66251 -0.0208375 -0.0224025 -0.006357
33 2 4.16663 10.0144 4.04803 -0.010171 -0.013423 0.00132203
34 1 8.27908 5.46622 8.11226 -0.00341995 -0.00207742 -0.00267634
35 2 8.48272 4.50121 8.02655 -0.00715504 0.0116671 -0.0119525
36 2 7.6684 5.53064 8.89331 -0.00949713 0.000125244 -0.00521171
37 1 8.98816 11.5862 10.5043 -0.00424747 -0.00134655 0.00460476
38 2 9.41559 12.1634 9.88382 -0.00829311 -0.0071948 0.00838436
39 2 9.97629 10.3582 11.4985 0.0297811 -0.00249275 0.00919102
40 1 12.0869 12.0875 5.2943 -0.000293013 -0.000920151 -0.0016944
41 2 3.06775 13.6694 4.54984 -0.00208769 -0.00552324 0.000926731
42 2 11.1337 12.3194 5.1349 0.00654108 0.00344608 0.00535079
43 1 3.38689 4.67292 4.08669 0.00544717 0.00061899 0.00360687
44 2 11.6518 8.12426 3.85411 -0.0215374 -0.016798 -0.0196982
45 2 4.8633 4.68964 2.84684 -0.00397075 -0.00260253 -0.00468787
46 1 9.72067 12.5618 8.0201 -0.00279362 -0.00884316 -0.00462379
47 2 9.16099 12.2471 7.25081 -0.0267389 -0.0252198 -0.0120116
48 2 10.5538 12.0282 8.04033 0.0284017 0.00485032 -0.00713918
49 1 10.3765 6.15021 9.76856 0.00493902 -0.00354194 -0.00385812
50 2 9.7863 5.77404 9.14675 -0.0141716 0.00605677 -0.00127965
51 2 9.83393 6.32271 10.5822 -0.00518625 0.0149463 0.0309528
52 1 9.73542 9.6969 4.76574 0.00134919 0.00629757 0.00204733
53 2 9.40425 8.84039 4.9257 -0.00788511 -0.00199498 0.000339276
54 2 9.05438 10.2262 5.17488 0.0281944 -0.00116316 -0.0188321
55 1 4.72064 11.3537 2.97774 0.000464069 -0.00198309 0.00199341
56 2 5.51697 10.6594 2.93747 0.00629019 -0.0200404 0.0157453
57 2 4.10272 10.8815 2.26817 -0.00899017 0.0216322 -0.0111775
58 1 6.84609 10.3948 9.41619 -0.00109274 0.00461248 6.09757e-06
59 2 4.91957 11.9294 7.28527 0.015341 -0.00963954 0.0333821
60 2 8.16645 11.3014 10.0737 0.000634331 -0.0269602 0.0194628
61 1 7.06314 5.29499 5.74705 0.00144276 0.00500497 -0.00789463
62 2 7.36513 5.35 6.73331 0.0215094 0.00411415 0.0159367
63 2 5.71442 5.82888 5.92347 -0.027713 0.00659622 -0.00128492
64 1 5.54629 11.1646 7.16083 0.00451997 0.00627985 -0.00421128
65 2 4.98594 10.4338 6.95919 0.00295549 -0.00333891 -0.0136529
66 2 12.0761 11.6297 6.19386 -0.010234 -0.00796176 0.00355677
67 1 12.3703 11.789 8.20629 0.000369853 0.00123745 0.000851802
68 2 12.73 12.6706 8.10319 -0.011198 -0.0212694 -0.0139908
69 2 12.665 11.5757 9.12875 0.0198596 0.00530579 0.00214303
70 1 9.80998 4.30949 4.82469 -0.00145386 0.00206558 -0.000360236
71 2 9.99472 13.7375 3.96782 -0.00307012 -0.0196663 0.0123778
72 2 8.99549 13.7622 5.10116 -0.0133667 -0.0216428 -0.00141867
73 1 11.5215 8.35263 8.15235 0.001753 -4.70144e-05 0.00121017
74 2 11.3044 7.62273 8.72952 0.0227466 0.0347882 0.014403
75 2 12.3081 8.04953 7.65515 -0.00788859 0.0198189 0.0212266
76 1 3.10107 5.42655 9.86332 0.00216269 0.00113241 0.00485246
77 2 11.9944 5.66376 9.81793 -0.012381 0.015561 -0.00918732
78 2 3.61582 6.84054 10.904 0.014259 -0.00417523 -0.00449344
79 1 3.12435 10.2636 10.6778 -0.00351354 -0.000837948 0.00182129
80 2 3.36433 9.38344 10.3638 0.026012 0.00927629 0.0141585
81 2 6.34376 10.6878 8.61397 -0.0173251 0.0268934 0.00145082
82 1 6.08758 5.81876 9.77743 -0.00292134 -0.00246652 -0.0057756
83 2 5.50635 6.54271 10.0143 0.00200654 -0.0357474 0.00718216
84 2 6.18847 5.26345 10.6257 -0.00106399 -0.00778881 -0.00914473
85 1 10.0047 13.6704 2.18348 -0.00271457 0.0100767 0.0016874
86 2 9.55642 12.9653 11.5781 0.0176195 0.0115111 -0.0223401
87 2 3.12081 4.50462 10.2564 0.00744111 0.0118383 -0.0373683
88 1 7.97198 11.7606 5.86783 0.00208107 0.00433684 -0.00502736
89 2 7.12399 11.3129 6.14399 -0.0287747 0.0246777 0.00204219
90 2 7.6768 12.6533 5.76926 -0.00618096 -0.00714649 -0.0125109
91 1 4.56529 5.9499 6.10169 -0.00698547 -0.0018369 0.00177582
92 2 4.52879 7.66134 6.65631 0.00127618 0.0145536 0.0072376
93 2 3.88277 4.77822 7.05386 -0.00275612 -0.0153182 -0.0156726
94 1 4.05596 4.16171 7.82736 0.00518418 -0.00239453 0.00424115
95 2 4.2158 4.8097 8.56056 -0.00693925 -0.00597876 0.000339251
96 2 4.1211 5.55064 5.3006 0.00461774 -0.0222622 -0.0263487
ITEM: TIMESTEP
1
ITEM: NUMBER OF ATOMS
96
ITEM: BOX BOUNDS pp pp pp
2.9236100000000000e+00 1.2773600000000000e+01
4.0306300000000004e+00 1.3880599999999999e+01
2.1372399999999998e+00 1.1987200000000000e+01
ITEM: ATOMS id type x y z vx vy vz
1 1 5.62692 4.33945 2.43194 0.00233 -0.00146205 0.00132357
2 2 5.3954 13.2331 2.37841 0.0253672 -0.0101275 -0.0248973
3 2 10.9956 13.5531 11.9564 0.00694531 -0.0268949 -0.00156815
4 1 12.5022 12.9697 11.6488 0.000613679 0.00261991 0.000260956
5 2 12.5685 12.1803 11.1858 -0.00561748 -0.000542884 0.00584738
6 2 3.23175 12.8254 2.55714 0.00179008 0.00525489 -0.0129538
7 1 11.6345 7.16535 3.78033 -0.00387532 -0.00147157 0.00181724
8 2 10.6776 6.90187 3.83167 0.0034235 1.78331e-05 -0.000587575
9 2 9.62065 8.45025 7.70615 -0.00400676 0.012235 -0.0139065
10 1 8.73032 8.68972 7.91191 0.00344457 -0.00248497 0.00558264
11 2 8.24316 7.8792 8.00656 -0.0205732 0.0157401 -0.00184096
12 2 7.48868 9.75186 9.03342 0.044542 -0.00676139 0.0124089
13 1 6.24626 9.09333 2.13843 0.00302188 -0.00142228 -0.00243676
14 2 6.5293 9.76134 11.3604 0.00863831 -0.0350889 -0.00947141
15 2 5.3902 8.72785 11.6878 -0.0157327 -0.00530814 -0.00778461
16 1 8.57015 7.46472 11.9586 0.00166614 -0.00155367 -0.0036357
17 2 8.54375 7.03438 3.77338 -0.0372379 0.00234015 -0.0390393
18 2 7.79838 8.07673 11.9552 -0.0227121 0.000708967 0.00220887
19 1 4.0973 7.51611 11.5123 0.00226008 -0.00309292 -0.000107144
20 2 3.78031 7.27834 2.54478 0.00431515 -0.00524654 -0.0190882
21 2 12.1624 10.0679 11.1962 0.00311958 -0.00940766 0.0257285
22 1 10.3849 9.62994 11.9865 0.000761876 0.0011655 -0.000744304
23 2 10.2133 9.81176 3.06676 -0.00298888 -0.0125112 0.0122148
24 2 9.34194 8.05573 11.8113 0.0246095 0.0157659 0.0114808
25 1 4.16408 8.5316 6.7515 0.00213094 0.00412653 7.13215e-05
26 2 3.70864 8.7675 5.94506 -0.0320964 0.0263177 0.0142948
27 2 12.4252 5.19927 4.05953 -0.0187499 -0.0117668 0.0131997
28 1 8.88844 6.85012 4.71473 -0.00306379 -0.00102289 -7.3324e-06
29 2 9.14418 5.85904 4.74179 -0.0107142 -0.0188732 -0.00408753
30 2 7.49319 6.06658 5.32695 -0.00424469 -0.0128824 0.0233018
31 1 3.35794 9.70952 4.50009 -0.00324706 -0.00124145 0.00770708
32 2 12.6389 10.4747 4.65945 -0.0216753 -0.0189547 -0.0058977
33 2 4.16185 10.0085 4.04838 -0.00885612 -0.0101364 -3.47178e-06
34 1 8.27737 5.46514 8.11093 -0.00342532 -0.00219175 -0.00266594
35 2 8.47935 4.50747 8.02093 -0.00620377 0.012767 -0.0105066
36 2 7.66331 5.53063 8.89032 -0.0108858 -0.000226361 -0.00671059
37 1 8.98608 11.5855 10.5067 -0.00407033 -0.0013603 0.00504632
38 2 9.4121 12.1604 9.88657 -0.00576135 -0.00462398 0.00234103
39 2 9.99084 10.3572 11.5025 0.0280409 -0.000861532 0.00655061
40 1 12.0867 12.087 5.29352 -0.000574825 -0.00108338 -0.0014229
41 2 3.0672 13.6679 4.54964 0.000105353 -0.00051998 -0.00171847
42 2 11.1383 12.3208 5.13811 0.0114964 0.00234475 0.00734576
43 1 3.38955 4.67313 4.08856 0.00517241 0.000228342 0.00387105
44 2 11.6408 8.11554 3.84433 -0.0224965 -0.0173155 -0.0193636
45 2 4.86046 4.68935 2.84516 -0.00722504 0.00103384 -0.00218686
46 1 9.71924 12.5574 8.01776 -0.00293789 -0.00892171 -0.00476056
47 2 9.14851 12.2344 7.24562 -0.0225664 -0.0252764 -0.00815883
48 2 10.5676 12.031 8.03642 0.0261116 0.00655137 -0.00859987
49 1 10.379 6.14853 9.76675 0.00490299 -0.00317635 -0.00334817
50 2 9.77814 5.77635 9.14494 -0.018109 0.00346617 -0.00549729
51 2 9.83169 6.33006 10.5972 -0.00312421 0.0141665 0.0278001
52 1 9.73612 9.7001 4.76677 0.00152427 0.00644104 0.00203994
53 2 9.40021 8.83752 4.92588 -0.00814523 -0.00903402 0.00032719
54 2 9.0682 10.2267 5.16569 0.0260985 0.00393869 -0.0173738
55 1 4.72094 11.3524 2.97857 0.00075025 -0.00310296 0.00133568
56 2 5.51816 10.6518 2.94567 -0.00192175 -0.0104058 0.0168183
57 2 4.09945 10.8942 2.26428 -0.00385377 0.0287722 -0.00432856
58 1 6.84554 10.3971 9.41619 -0.00107305 0.00440968 -2.23982e-05
59 2 4.9277 11.9237 7.30196 0.0167292 -0.0126715 0.0333727
60 2 8.1656 11.2875 10.083 -0.00404657 -0.0285941 0.0175079
61 1 7.06389 5.2974 5.74312 0.00154463 0.0045887 -0.00771279
62 2 7.37593 5.35213 6.74136 0.0212676 0.00420258 0.0155242
63 2 5.69711 5.83208 5.9231 -0.0409232 0.00613082 -8.98877e-05
64 1 5.54854 11.1678 7.15872 0.00448829 0.0066591 -0.0042311
65 2 4.98659 10.4313 6.95225 -0.000129465 -0.00622887 -0.0139871
66 2 12.0708 11.6269 6.1943 -0.0107432 -0.00301835 -0.00195653
67 1 12.3705 11.7896 8.2068 0.000298782 0.000983374 0.00118037
68 2 12.7248 12.6613 8.09539 -0.00947341 -0.015196 -0.0172684
69 2 12.6744 11.5775 9.1292 0.0176164 0.00183481 -0.000380416
70 1 9.80929 4.31053 4.82456 -0.0013598 0.00207932 -0.000154032
71 2 9.99327 13.7278 3.97287 -0.00262717 -0.019186 0.00781178
72 2 8.98803 13.7511 5.10097 -0.0157264 -0.0225056 0.000527782
73 1 11.5224 8.35258 8.15292 0.00180855 -6.09066e-05 0.00106707
74 2 11.3157 7.63986 8.73698 0.0221767 0.0329162 0.0160716
75 2 12.304 8.06002 7.666 -0.00767336 0.0217235 0.0216259
76 1 3.10222 5.42706 9.86578 0.00240005 0.000969727 0.00497244
77 2 11.9881 5.67135 9.81331 -0.0124373 0.0145419 -0.0092213
78 2 3.62399 6.83956 10.903 0.0182684 0.00010572 0.000190325
79 1 3.12258 10.2632 10.6787 -0.00356347 -0.000818439 0.0019172
80 2 3.37743 9.38816 10.3711 0.0263235 0.00939483 0.0149571
81 2 6.33458 10.7019 8.61476 -0.018614 0.028881 0.00200592
82 1 6.08616 5.81746 9.77462 -0.00271022 -0.00279197 -0.00547601
83 2 5.50735 6.52445 10.0184 0.00131839 -0.0363961 0.00934478
84 2 6.18722 5.2609 10.6198 -0.0038004 -0.00264712 -0.014411
85 1 10.0033 13.6755 2.18438 -0.00286852 0.0104002 0.00190858
86 2 9.56518 12.9703 11.5666 0.0171754 0.00851813 -0.0235593
87 2 3.12433 4.51169 10.2377 0.00647397 0.0155806 -0.0371278
88 1 7.97297 11.7627 5.86534 0.00184999 0.00420465 -0.00492427
89 2 7.11065 11.3256 6.14491 -0.0239194 0.0259516 0.00147491
90 2 7.67358 12.6505 5.76283 -0.00649148 -0.0038327 -0.0133217
91 1 4.56189 5.94901 6.10256 -0.00661211 -0.00173319 0.00168007
92 2 4.52994 7.66684 6.65965 0.0032306 0.00736918 0.00579236
93 2 3.88162 4.7703 7.04532 -0.00167631 -0.0164058 -0.0179923
94 1 4.05857 4.16054 7.82951 0.00525534 -0.00228562 0.00432569
95 2 4.21225 4.80604 8.56113 -0.00723481 -0.0083503 0.00186798
96 2 4.12405 5.53966 5.28742 0.00721612 -0.0213674 -0.0258133
ITEM: TIMESTEP
2
ITEM: NUMBER OF ATOMS
96
ITEM: BOX BOUNDS pp pp pp
2.9236100000000000e+00 1.2773600000000000e+01
4.0306300000000004e+00 1.3880599999999999e+01
2.1372399999999998e+00 1.1987200000000000e+01
ITEM: ATOMS id type x y z vx vy vz
1 1 5.62814 4.33863 2.43253 0.00252714 -0.00182224 0.00105602
2 2 5.40855 13.2285 2.36611 0.0269642 -0.00791101 -0.0240972
3 2 10.9985 13.5396 11.9555 0.00437159 -0.0267569 -0.00178216
4 1 12.5026 12.9711 11.649 0.000876549 0.00303747 0.000233426
5 2 12.5657 12.1779 11.1875 -0.00583457 -0.00892892 0.00100639
6 2 3.23287 12.8282 2.55125 0.00288665 0.00579168 -0.0102912
7 1 11.6325 7.16455 3.78123 -0.00405245 -0.00177718 0.00177832
8 2 10.6806 6.90271 3.83152 0.00798207 0.00302216 3.47951e-05
9 2 9.61956 8.45604 7.69923 -0.000298668 0.0106616 -0.0137871
10 1 8.73194 8.68854 7.91472 0.00304185 -0.0022015 0.0056572
11 2 8.23322 7.88637 8.00555 -0.0190426 0.0127363 -0.00226625
12 2 7.51084 9.74865 9.03981 0.0428988 -0.00510215 0.0130813
13 1 6.24782 9.09266 2.13729 0.00316835 -0.00132327 -0.00209098
14 2 6.53339 9.74381 11.3547 0.00789111 -0.0345717 -0.0135856
15 2 5.38219 8.72504 11.6835 -0.0156573 -0.00570064 -0.00903857
16 1 8.571 7.46395 11.9568 0.0017086 -0.00149429 -0.0036011
17 2 8.52563 7.03536 3.75405 -0.0344382 0.00127207 -0.0368547
18 2 7.78679 8.07683 11.9563 -0.0228488 -0.00064332 0.00207593
19 1 4.09835 7.51447 11.5122 0.00197556 -0.00343858 -0.000429208
20 2 3.7823 7.27588 2.53495 0.00342018 -0.00474682 -0.0194376
21 2 12.1641 10.0631 11.2087 0.0042071 -0.00987998 0.0241327
22 1 10.3854 9.63048 11.9861 0.00097309 0.000919323 -0.000925784
23 2 10.2116 9.80556 3.07407 -0.00373703 -0.0122578 0.0165977
24 2 9.35435 8.06379 11.8173 0.0240448 0.0160527 0.0124965
25 1 4.16516 8.53376 6.75167 0.00217517 0.00451714 0.0006161
26 2 3.69192 8.78109 5.9507 -0.0343568 0.0275776 0.00874538
27 2 12.4159 5.19378 4.0659 -0.0180537 -0.0102626 0.0122394
28 1 8.88689 6.8496 4.71468 -0.00315888 -0.00108684 -0.000308394
29 2 9.13919 5.85016 4.73949 -0.00945952 -0.0159743 -0.00519916
30 2 7.49161 6.06144 5.33777 -0.00186142 -0.00710076 0.0194381
31 1 3.35628 9.7088 4.50395 -0.00338408 -0.00168131 0.0077174
32 2 12.6278 10.4661 4.65661 -0.0225 -0.0150348 -0.00549368
33 2 4.15777 10.0043 4.04803 -0.00744406 -0.00649259 -0.00142925
34 1 8.27565 5.46403 8.10959 -0.00342941 -0.00222622 -0.00266526
35 2 8.47652 4.51398 8.01604 -0.00502169 0.0126136 -0.00899504
36 2 7.65751 5.53041 8.8866 -0.0123543 -0.000691665 -0.00809695
37 1 8.98409 11.5848 10.5093 -0.00388436 -0.00137875 0.005507
38 2 9.40983 12.1588 9.88616 -0.00354656 -0.00217562 -0.00401901
39 2 10.0043 10.3573 11.5051 0.0256423 0.00185282 0.0034445
40 1 12.0863 12.0864 5.29288 -0.000824044 -0.00126148 -0.00113183
41 2 3.06786 13.6689 4.54812 0.00262922 0.00423406 -0.00426562
42 2 11.1452 12.3217 5.14225 0.0156295 0.00150973 0.0090279
43 1 3.39206 4.67315 4.09056 0.00482246 -0.000140588 0.00412482
44 2 11.6293 8.10694 3.83475 -0.0231657 -0.0162504 -0.0189331
45 2 4.85607 4.69067 2.84465 -0.00996321 0.00370405 -6.30996e-05
46 1 9.71773 12.5529 8.01534 -0.00306473 -0.00906388 -0.00494834
47 2 9.13842 12.2218 7.24265 -0.0173514 -0.0249503 -0.00332641
48 2 10.5799 12.0348 8.03173 0.0224552 0.00879406 -0.0102256
49 1 10.3814 6.14703 9.76521 0.00473565 -0.0028182 -0.00277773
50 2 9.76819 5.77751 9.14125 -0.021158 0.00151207 -0.0086415
51 2 9.83081 6.33688 10.61 0.000129895 0.0128551 0.0226123
52 1 9.73694 9.70334 4.76778 0.00179216 0.0064181 0.00197447
53 2 9.3961 8.83136 4.92603 -0.00811955 -0.0148466 0.000155673
54 2 9.08048 10.2301 5.15751 0.0222458 0.0102418 -0.0149109
55 1 4.72139 11.3506 2.97908 0.00105181 -0.00417852 0.000711604
56 2 5.51505 10.649 2.95429 -0.0105272 -0.00083932 0.0174205
57 2 4.09887 10.9103 2.26384 0.00151011 0.0352343 0.0023441
58 1 6.84502 10.3992 9.41617 -0.000994737 0.00414727 -0.000103638
59 2 4.9363 11.9167 7.31864 0.0171819 -0.0147767 0.0333584
60 2 8.1624 11.2728 10.0912 -0.00851145 -0.0299347 0.0154058
61 1 7.06468 5.29958 5.73934 0.00159051 0.00413012 -0.00734908
62 2 7.3864 5.3542 6.74883 0.0201258 0.00390375 0.0135424
63 2 5.6735 5.83501 5.92338 -0.0525175 0.00546918 0.00131571
64 1 5.55078 11.1713 7.1566 0.00447936 0.00692168 -0.00424477
65 2 4.98581 10.4276 6.9452 -0.00266603 -0.00827788 -0.0140534
66 2 12.0654 11.6267 6.1919 -0.01101 0.00187094 -0.00753834
67 1 12.3706 11.79 8.20747 0.00018944 0.00064078 0.00151886
68 2 12.7205 12.6554 8.08592 -0.00721177 -0.00791461 -0.0205886
69 2 12.6826 11.5775 9.12837 0.015304 -0.00144506 -0.00296864
70 1 9.80862 4.31157 4.82454 -0.0013749 0.00202236 5.95939e-05
71 2 9.99209 13.7183 3.97563 -0.00200938 -0.0183548 0.00333847
72 2 8.97976 13.7397 5.10169 -0.0165438 -0.0224475 0.00219528
73 1 11.5233 8.35257 8.15342 0.00177189 6.98927e-05 0.00091512
74 2 11.3266 7.65565 8.74559 0.0211953 0.0295372 0.0189235
75 2 12.3004 8.07125 7.67678 -0.00572833 0.0228147 0.0209465
76 1 3.10347 5.42752 9.86829 0.00259197 0.000944075 0.00502378
77 2 11.982 5.6783 9.80871 -0.0116347 0.0130568 -0.00909303
78 2 3.63409 6.84065 10.9042 0.0218381 0.0039147 0.00431692
79 1 3.12079 10.2628 10.6797 -0.00363828 -0.000766743 0.00204667
80 2 3.39065 9.39283 10.3788 0.0264867 0.00909066 0.0157608
81 2 6.32515 10.7167 8.61598 -0.0183857 0.029592 0.00309897
82 1 6.08487 5.81597 9.77195 -0.00243917 -0.00318661 -0.00521829
83 2 5.50767 6.50631 10.0236 -0.000692648 -0.035246 0.0116613
84 2 6.18467 5.2608 10.6113 -0.00617319 0.00185089 -0.0192164
85 1 10.0018 13.6808 2.18539 -0.00295286 0.0106471 0.00208757
86 2 9.5736 12.9738 11.5545 0.016284 0.006059 -0.0244021
87 2 3.12728 4.5202 10.2193 0.00524869 0.017501 -0.036016
88 1 7.97383 11.7648 5.86291 0.00153551 0.00405717 -0.00478553
89 2 7.10007 11.3389 6.14546 -0.0178966 0.0269617 0.000632541
90 2 7.67031 12.6495 5.75594 -0.0063903 7.82635e-05 -0.0143472
91 1 4.55868 5.94817 6.10337 -0.00626651 -0.00166947 0.00151566
92 2 4.53202 7.66871 6.6621 0.00483248 0.000362351 0.00376053
93 2 3.88109 4.76181 7.03587 -0.000282547 -0.0176324 -0.0191996
94 1 4.06122 4.15942 7.83169 0.0053084 -0.00220361 0.00434591
95 2 4.20857 4.80135 8.56243 -0.00746469 -0.0100601 0.00322611
96 2 4.12832 5.52927 5.27479 0.00971065 -0.0199651 -0.0243218
ITEM: TIMESTEP
3
ITEM: NUMBER OF ATOMS
96
ITEM: BOX BOUNDS pp pp pp
2.9236100000000000e+00 1.2773600000000000e+01
4.0306300000000004e+00 1.3880599999999999e+01
2.1372399999999998e+00 1.1987200000000000e+01
ITEM: ATOMS id type x y z vx vy vz
1 1 5.62945 4.33763 2.433 0.00269416 -0.00215341 0.00080773
2 2 5.42237 13.2252 2.35432 0.0280552 -0.00509935 -0.0228807
3 2 11 13.5263 11.9546 0.00128142 -0.0259159 -0.00152226
4 1 12.5031 12.9727 11.6491 0.00112699 0.00341229 0.000149573
5 2 12.5627 12.1713 11.1869 -0.00616602 -0.0166335 -0.00343055
6 2 3.23464 12.8312 2.54685 0.00427084 0.00629906 -0.00716423
7 1 11.6305 7.16358 3.78211 -0.00418274 -0.00213562 0.00173178
8 2 10.6856 6.90489 3.8317 0.0113713 0.005323 0.00070296
9 2 9.62036 8.46091 7.69237 0.00334636 0.00859849 -0.0136605
10 1 8.73336 8.68751 7.91757 0.00262013 -0.00186323 0.00574695
11 2 8.22412 7.89193 8.0043 -0.0171588 0.0094135 -0.00281637
12 2 7.53158 9.74676 9.0465 0.0389735 -0.0016387 0.0135552
13 1 6.24943 9.09201 11.9863 0.00322121 -0.00131131 -0.00173887
14 2 6.5372 9.72677 11.3468 0.00749918 -0.0332472 -0.0183148
15 2 5.37454 8.72215 11.6788 -0.0142639 -0.00566763 -0.00972607
16 1 8.57186 7.46323 11.955 0.00176298 -0.0013372 -0.00353381
17 2 8.50931 7.03565 3.73653 -0.0301568 -0.000354158 -0.0320796
18 2 7.77553 8.07609 11.9573 -0.0214916 -0.00260461 0.00182827
19 1 4.09928 7.51267 11.5119 0.00176428 -0.00369991 -0.000783569
20 2 3.78373 7.2736 2.52534 0.00208809 -0.0045469 -0.0182061
21 2 12.1666 10.058 11.2203 0.00577757 -0.0104294 0.0221028
22 1 10.3859 9.63086 11.9856 0.00120248 0.000609861 -0.00101801
23 2 10.2096 9.7995 3.08335 -0.00446604 -0.0119452 0.0198915
24 2 9.36598 8.07178 11.8238 0.021573 0.0155494 0.0137992
25 1 4.16626 8.53612 6.75211 0.00220966 0.00492134 0.00111729
26 2 3.67428 8.79508 5.9538 -0.0356786 0.0279022 0.00430193
27 2 12.4071 5.18901 4.07176 -0.0164843 -0.00891782 0.0111732
28 1 8.88528 6.84903 4.71443 -0.00330714 -0.00117372 -0.00080762
29 2 9.13472 5.84307 4.73659 -0.00850963 -0.0118509 -0.00649118
30 2 7.49132 6.05948 5.34639 0.000832192 -0.000403928 0.0146665
31 1 3.35456 9.70784 4.50781 -0.00352471 -0.00214267 0.00773522
32 2 12.6164 10.4596 4.65396 -0.0231433 -0.0109556 -0.00517822
33 2 4.1544 10.002 4.04695 -0.00616083 -0.00266069 -0.00279607
34 1 8.27394 5.46292 8.10826 -0.00342871 -0.00218102 -0.00267055
35 2 8.47433 4.52009 8.01193 -0.00360716 0.0112035 -0.00742984
36 2 7.65096 5.52994 8.88222 -0.0139053 -0.00125921 -0.00935151
37 1 8.98219 11.5841 10.5122 -0.00369597 -0.00138722 0.00594902
38 2 9.40855 12.1583 9.88255 -0.0019458 -0.000255092 -0.0102885
39 2 10.0165 10.3591 11.506 0.0227641 0.00533255 0.000141863
40 1 12.0859 12.0857 5.29238 -0.00101695 -0.00144749 -0.00084666
41 2 3.06983 13.6721 4.54538 0.00532476 0.00842326 -0.00653572
42 2 11.1539 12.3223 5.14713 0.0185393 0.00106213 0.0102965
43 1 3.39438 4.67299 4.09268 0.0044099 -0.000467593 0.0043526
44 2 11.6176 8.09929 3.8254 -0.0235133 -0.0136549 -0.0184468
45 2 4.8505 4.69306 2.84509 -0.0118543 0.00522978 0.00150023
46 1 9.71617 12.5483 8.01281 -0.00317235 -0.00924916 -0.0051615
47 2 9.13116 12.2095 7.24229 -0.0114604 -0.0243402 0.00206182
48 2 10.5901 12.0398 8.0262 0.0177859 0.0113602 -0.0119378
49 1 10.3837 6.14571 9.76397 0.00443954 -0.00248053 -0.00218948
50 2 9.75698 5.77786 9.1363 -0.0230477 0.000327228 -0.010483
51 2 9.83182 6.34291 10.6198 0.00427775 0.0110947 0.0158229
52 1 9.73792 9.70652 4.76874 0.00211522 0.00622642 0.00186981
53 2 9.39209 8.82268 4.92604 -0.00771847 -0.0188346 -0.00020351
54 2 9.09044 10.237 5.15077 0.017131 0.0172009 -0.0117697
55 1 4.72199 11.3482 2.97928 0.00135542 -0.00514588 0.000161139
56 2 5.50763 10.6509 2.96309 -0.0187731 0.00805305 0.0175348
57 2 4.10096 10.9294 2.26663 0.00659602 0.0406831 0.00829563
58 1 6.84455 10.4012 9.41609 -0.000864625 0.00383819 -0.000226056
59 2 4.94488 11.9089 7.33532 0.0166586 -0.0158853 0.033393
60 2 8.15709 11.2576 10.0984 -0.0123565 -0.0308181 0.0133564
61 1 7.06548 5.30153 5.73578 0.00159022 0.00365966 -0.00682019
62 2 7.39606 5.35603 6.75491 0.0180517 0.00324215 0.00989967
63 2 5.64459 5.83755 5.92441 -0.061674 0.00458792 0.00290989
64 1 5.55302 11.1748 7.15447 0.00448498 0.00705256 -0.00425861
65 2 4.98392 10.423 6.9382 -0.00449658 -0.00932943 -0.0137887
66 2 12.0598 11.6288 6.18676 -0.0110187 0.00642893 -0.01268
67 1 12.3707 11.7902 8.20831 5.40353e-05 0.000250608 0.0018502
68 2 12.7175 12.6534 8.0748 -0.00459782 -0.000110682 -0.0237495
69 2 12.6897 11.576 9.12624 0.0130104 -0.00443336 -0.00554082
70 1 9.80792 4.31256 4.82462 -0.00149574 0.00188461 0.000263784
71 2 9.99126 13.7094 3.97621 -0.00133022 -0.017039 -0.000767579
72 2 8.97149 13.7286 5.10316 -0.0157649 -0.021429 0.0035216
73 1 11.5242 8.35265 8.15384 0.00163643 0.000318757 0.000763988
74 2 11.3369 7.6694 8.7559 0.0199466 0.0250128 0.0227223
75 2 12.2983 8.08283 7.68695 -0.00209437 0.0231514 0.0192634
76 1 3.10481 5.428 9.87081 0.00273824 0.00105951 0.00500672
77 2 11.9764 5.68441 9.80421 -0.0100564 0.0111846 -0.00882673
78 2 3.64583 6.84348 10.9073 0.0247372 0.00692893 0.00754865
79 1 3.11895 10.2624 10.6808 -0.00373651 -0.000686572 0.00220011
80 2 3.40392 9.39725 10.3868 0.0265149 0.0084304 0.016574
81 2 6.3162 10.7315 8.61786 -0.0167191 0.0291092 0.00463999
82 1 6.08372 5.81427 9.7694 -0.00212068 -0.00362107 -0.00502341
83 2 5.50665 6.4892 10.0301 -0.00394706 -0.0324152 0.0140528
84 2 6.18104 5.26275 10.6006 -0.00805896 0.00537006 -0.0231803
85 1 10.0003 13.6862 2.18647 -0.00297903 0.0108024 0.00221706
86 2 9.58146 12.9763 11.5422 0.0149629 0.00430332 -0.0247486
87 2 3.12957 4.52919 10.2017 0.00383446 0.0173936 -0.0340402
88 1 7.97451 11.7668 5.86055 0.00115911 0.00391927 -0.00462542
89 2 7.09275 11.3525 6.14554 -0.0111029 0.0275658 -0.000370004
90 2 7.66719 12.6505 5.74848 -0.00582894 0.00426786 -0.0155353
91 1 4.55563 5.94734 6.10408 -0.00597212 -0.00163368 0.00129801
92 2 4.53477 7.66721 6.66341 0.00577769 -0.00577911 0.0012363
93 2 3.88134 4.75267 7.02612 0.00139322 -0.0190141 -0.0191711
94 1 4.06388 4.15834 7.83386 0.00534058 -0.00215869 0.00429948
95 2 4.20478 4.79598 8.56436 -0.00765586 -0.0110495 0.00439157
96 2 4.13376 5.5197 5.2631 0.0118001 -0.0181719 -0.0221435
ITEM: TIMESTEP
4
ITEM: NUMBER OF ATOMS
96
ITEM: BOX BOUNDS pp pp pp
2.9236100000000000e+00 1.2773600000000000e+01
4.0306300000000004e+00 1.3880599999999999e+01
2.1372399999999998e+00 1.1987200000000000e+01
ITEM: ATOMS id type x y z vx vy vz
1 1 5.63083 4.33647 2.43334 0.00282032 -0.00243822 0.000588587
2 2 5.4366 13.2234 2.34323 0.0285983 -0.00186777 -0.0212775
3 2 10.9998 13.5137 11.954 -0.0020303 -0.0243872 -0.000796347
4 1 12.5037 12.9745 11.6491 0.00137166 0.00369779 5.5482e-07
5 2 12.5595 12.1612 11.1841 -0.00658983 -0.022908 -0.00696509
6 2 3.23714 12.8345 2.54408 0.00572369 0.006769 -0.00392213
7 1 11.6283 7.16241 3.78296 -0.00424575 -0.00252452 0.00167892
8 2 10.692 6.90803 3.83223 0.0133108 0.00678751 0.0014092
9 2 9.62291 8.46464 7.68557 0.00656925 0.00622396 -0.0134317
10 1 8.73456 8.68667 7.92047 0.0022021 -0.00149574 0.0058459
11 2 8.21606 7.89578 8.00273 -0.0148824 0.00599118 -0.00350208
12 2 7.54982 9.74701 9.05336 0.0331526 0.00321123 0.0137383
13 1 6.25104 9.09135 11.9855 0.00318814 -0.0013699 -0.00140177
14 2 6.54089 9.71056 11.3364 0.00738079 -0.0313973 -0.023362
15 2 5.36792 8.71937 11.6738 -0.0115651 -0.0052263 -0.00981038
16 1 8.57276 7.46261 11.9532 0.00182636 -0.00109722 -0.00343219
17 2 8.49548 7.03501 3.72197 -0.0246108 -0.00234585 -0.0252958
18 2 7.7653 8.07422 11.9581 -0.0188519 -0.00503192 0.00147447
19 1 4.10011 7.51077 11.5114 0.00163666 -0.00385852 -0.00114751
20 2 3.78438 7.27134 2.51675 0.000332668 -0.00463131 -0.0154536
21 2 12.1699 10.0527 11.2308 0.0076912 -0.0110498 0.0197421
22 1 10.3866 9.63109 11.985 0.00143243 0.00026511 -0.00102007
23 2 10.2071 9.79361 3.09397 -0.00514362 -0.0115822 0.0218277
24 2 9.37592 8.07934 11.8311 0.0174319 0.0143626 0.0152985
25 1 4.16737 8.53868 6.75279 0.00223026 0.00530979 0.00154646
26 2 3.65624 8.80899 5.95501 -0.0358076 0.0272269 0.0012808
27 2 12.3994 5.18487 4.07707 -0.0141304 -0.00771722 0.0100263
28 1 8.88358 6.84842 4.71388 -0.00350815 -0.00127288 -0.0014676
29 2 9.13068 5.83831 4.733 -0.00772804 -0.00689307 -0.00787761
30 2 7.49244 6.06103 5.35244 0.00356946 0.00668538 0.0093333
31 1 3.35276 9.70666 4.51168 -0.00366765 -0.00259875 0.00775627
32 2 12.6047 10.4552 4.65143 -0.0234346 -0.00702083 -0.00497247
33 2 4.15161 10.0016 4.04523 -0.00522035 0.00119008 -0.0039449
34 1 8.27223 5.46185 8.10692 -0.00342045 -0.00206376 -0.00267671
35 2 8.47291 4.52518 8.00861 -0.00198656 0.00865383 -0.00582753
36 2 7.64361 5.52915 8.87725 -0.0155178 -0.00191586 -0.010481
37 1 8.98039 11.5835 10.5153 -0.00351028 -0.00137337 0.00633838
38 2 9.40788 12.1585 9.87587 -0.0011983 0.000794479 -0.0160736
39 2 10.0271 10.3627 11.5052 0.0196105 0.00917805 -0.0030562
40 1 12.0853 12.085 5.29203 -0.00113358 -0.00163392 -0.00059311
41 2 3.07318 13.6773 4.54159 0.00802851 0.0117577 -0.00836693
42 2 11.1637 12.3228 5.15254 0.0199035 0.00110428 0.0110759
43 1 3.39647 4.67268 4.09491 0.00395086 -0.000735003 0.00454116
44 2 11.6058 8.09329 3.8163 -0.023521 -0.00974595 -0.0179478
45 2 4.84422 4.6959 2.84615 -0.0126815 0.00552891 0.00238942
46 1 9.71456 12.5436 8.01018 -0.00326161 -0.00945337 -0.00537312
47 2 9.12696 12.1975 7.24471 -0.00528417 -0.0235708 0.00756792
48 2 10.5977 12.0461 8.01979 0.0125239 0.0140117 -0.013664
49 1 10.3858 6.14455 9.76302 0.00402648 -0.00217209 -0.00162112
50 2 9.74514 5.77783 9.13077 -0.0236398 -4.50722e-05 -0.0109437
51 2 9.83508 6.34797 10.6258 0.00899321 0.00899775 0.00793843
52 1 9.73906 9.70957 4.76965 0.00245251 0.00588434 0.00174691
53 2 9.38839 8.81252 4.92582 -0.00690835 -0.0206564 -0.000749629
54 2 9.09761 10.2473 5.14574 0.01136 0.0242091 -0.00833438
55 1 4.72275 11.3455 2.97924 0.00164766 -0.00594524 -0.000278051
56 2 5.49628 10.657 2.97182 -0.0259251 0.0156682 0.0171672
57 2 4.10546 10.951 2.27214 0.0109103 0.0448421 0.0129936
58 1 6.84415 10.403 9.41594 -0.000694134 0.00349771 -0.000373077
59 2 4.95296 11.9008 7.35204 0.0151924 -0.0160116 0.0335168
60 2 8.15005 11.242 10.1046 -0.0152371 -0.0310881 0.0115391
61 1 7.06627 5.30324 5.73252 0.00156262 0.00320683 -0.0061557
62 2 7.40445 5.35744 6.75873 0.015088 0.00225562 0.00465324
63 2 5.61182 5.8396 5.92629 -0.0676692 0.00351675 0.00468186
64 1 5.55526 11.1783 7.15234 0.00449635 0.00704766 -0.00427728
65 2 4.98131 10.4182 6.93141 -0.00552625 -0.00931066 -0.0131578
66 2 12.0543 11.6331 6.17922 -0.0107685 0.0103933 -0.0168946
67 1 12.3707 11.7902 8.20932 -9.32872e-05 -0.000141263 0.00215659
68 2 12.7159 12.6553 8.06217 -0.00184296 0.0074643 -0.0265278
69 2 12.6956 11.5731 9.12283 0.0108196 -0.00704328 -0.00802503
70 1 9.80712 4.31345 4.8248 -0.00171078 0.00166189 0.00044265
71 2 9.99076 13.7013 3.97486 -0.000690095 -0.0151357 -0.00428024
72 2 8.964 13.7183 5.10521 -0.0134721 -0.019485 0.00448768
73 1 11.5249 8.35289 8.15418 0.00140657 0.000645803 0.000625152
74 2 11.3465 7.68066 8.76831 0.0186118 0.0198421 0.0270689
75 2 12.2983 8.0944 7.69604 0.00298499 0.0228637 0.016781
76 1 3.10621 5.42858 9.8733 0.00284108 0.00131046 0.00492601
77 2 11.9719 5.68949 9.79988 -0.00780029 0.00900723 -0.00844666
78 2 3.65883 6.84757 10.9117 0.0267827 0.00886839 0.00960697
79 1 3.11705 10.2621 10.6819 -0.00385379 -0.000582746 0.00236635