ITEM: TIMESTEP
0
ITEM: NUMBER OF ATOMS
96
ITEM: BOX BOUNDS pp pp pp
2.9236100000000000e+00 1.2773600000000000e+01
4.0306300000000004e+00 1.3880599999999999e+01
2.1372399999999998e+00 1.1987200000000000e+01
ITEM: ATOMS id type x y z vx vy vz
1 1 5.62581 4.34009 2.43121 -0.00211988 0.00109217 -0.00159729
2 2 5.38318 13.2386 2.39101 -0.0233299 0.011635 0.0252789
3 2 10.9916 13.5665 11.9571 -0.00875499 0.0263442 0.000889046
4 1 12.502 12.9685 11.6487 -0.000331733 -0.00221095 -0.000247691
5 2 12.5713 12.1784 11.1817 0.00551674 -0.00769244 -0.0105283
6 2 3.23108 12.8229 2.5642 -0.00116861 -0.00470311 0.0148389
7 1 11.6364 7.16602 3.77941 0.00367619 0.00123356 -0.00184753
8 2 10.6772 6.90269 3.83211 0.0019329 0.00351269 0.00115839
9 2 9.62357 8.44381 7.71314 0.00741695 -0.0131448 0.0140979
10 1 8.7285 8.69102 7.90914 -0.00380547 0.00268859 -0.00552761
11 2 8.25379 7.87063 8.00739 0.0217891 -0.0182126 0.00152053
12 2 7.4663 9.75541 9.0274 -0.0436928 0.00633853 -0.0116253
13 1 6.2448 9.09408 2.13973 -0.00278225 0.00161722 0.00275798
14 2 6.52475 9.7789 11.3642 -0.00978595 0.0345867 0.00618781
15 2 5.39792 8.73035 11.6913 0.0145821 0.00451007 0.00603418
16 1 8.56933 7.4655 11.9604 -0.00163798 0.00150723 0.00364266
17 2 8.56287 7.03302 3.79309 0.0384616 -0.00269318 0.0381925
18 2 7.8095 8.07612 11.9541 0.0209779 -0.00135464 -0.00222791
19 1 4.09609 7.51756 11.5123 -0.00260132 0.00268709 -0.000165299
20 2 3.77798 7.28113 2.55404 -0.00480054 0.00603105 0.017253
21 2 12.161 10.0725 11.183 -0.0026123 0.00902213 -0.0268196
22 1 10.3846 9.62931 11.9868 -0.000585896 -0.00132549 0.000482903
23 2 10.2146 9.81807 3.06186 0.00226097 0.0126821 -0.007113
24 2 9.32974 8.04802 11.8058 -0.0231686 -0.0146393 -0.010817
25 1 4.16303 8.52963 6.7516 -0.00208134 -0.00378157 0.00047835
26 2 3.72402 8.75477 5.93641 0.0292356 -0.0242526 -0.0204654
27 2 12.4346 5.20555 4.0527 0.0185411 0.013427 -0.0140315
28 1 8.88995 6.85062 4.71469 0.00301681 0.000988674 -6.95238e-05
29 2 9.1499 5.86903 4.74358 0.012383 0.0202682 0.00322207
30 2 7.49585 6.07432 5.31447 0.00609603 0.0173022 -0.0259662
31 1 3.35953 9.71004 4.49624 0.00311622 0.000849964 -0.00770709
32 2 12.6495 10.4851 4.66251 0.0208375 0.0224025 0.006357
33 2 4.16663 10.0144 4.04803 0.010171 0.013423 -0.00132203
34 1 8.27908 5.46622 8.11226 0.00341995 0.00207742 0.00267634
35 2 8.48272 4.50121 8.02655 0.00715504 -0.0116671 0.0119525
36 2 7.6684 5.53064 8.89331 0.00949713 -0.000125244 0.00521171
37 1 8.98816 11.5862 10.5043 0.00424747 0.00134655 -0.00460476
38 2 9.41559 12.1634 9.88382 0.00829311 0.0071948 -0.00838436
39 2 9.97629 10.3582 11.4985 -0.0297811 0.00249275 -0.00919102
40 1 12.0869 12.0875 5.2943 0.000293013 0.000920151 0.0016944
41 2 3.06775 13.6694 4.54984 0.00208769 0.00552324 -0.000926731
42 2 11.1337 12.3194 5.1349 -0.00654108 -0.00344608 -0.00535079
43 1 3.38689 4.67292 4.08669 -0.00544717 -0.00061899 -0.00360687
44 2 11.6518 8.12426 3.85411 0.0215374 0.016798 0.0196982
45 2 4.8633 4.68964 2.84684 0.00397075 0.00260253 0.00468787
46 1 9.72067 12.5618 8.0201 0.00279362 0.00884316 0.00462379
47 2 9.16099 12.2471 7.25081 0.0267389 0.0252198 0.0120116
48 2 10.5538 12.0282 8.04033 -0.0284017 -0.00485032 0.00713918
49 1 10.3765 6.15021 9.76856 -0.00493902 0.00354194 0.00385812
50 2 9.7863 5.77404 9.14675 0.0141716 -0.00605677 0.00127965
51 2 9.83393 6.32271 10.5822 0.00518625 -0.0149463 -0.0309528
52 1 9.73542 9.6969 4.76574 -0.00134919 -0.00629757 -0.00204733
53 2 9.40425 8.84039 4.9257 0.00788511 0.00199498 -0.000339276
54 2 9.05438 10.2262 5.17488 -0.0281944 0.00116316 0.0188321
55 1 4.72064 11.3537 2.97774 -0.000464069 0.00198309 -0.00199341
56 2 5.51697 10.6594 2.93747 -0.00629019 0.0200404 -0.0157453
57 2 4.10272 10.8815 2.26817 0.00899017 -0.0216322 0.0111775
58 1 6.84609 10.3948 9.41619 0.00109274 -0.00461248 -6.09757e-06
59 2 4.91957 11.9294 7.28527 -0.015341 0.00963954 -0.0333821
60 2 8.16645 11.3014 10.0737 -0.000634331 0.0269602 -0.0194628
61 1 7.06314 5.29499 5.74705 -0.00144276 -0.00500497 0.00789463
62 2 7.36513 5.35 6.73331 -0.0215094 -0.00411415 -0.0159367
63 2 5.71442 5.82888 5.92347 0.027713 -0.00659622 0.00128492
64 1 5.54629 11.1646 7.16083 -0.00451997 -0.00627985 0.00421128
65 2 4.98594 10.4338 6.95919 -0.00295549 0.00333891 0.0136529
66 2 12.0761 11.6297 6.19386 0.010234 0.00796176 -0.00355677
67 1 12.3703 11.789 8.20629 -0.000369853 -0.00123745 -0.000851802
68 2 12.73 12.6706 8.10319 0.011198 0.0212694 0.0139908
69 2 12.665 11.5757 9.12875 -0.0198596 -0.00530579 -0.00214303
70 1 9.80998 4.30949 4.82469 0.00145386 -0.00206558 0.000360236
71 2 9.99472 13.7375 3.96782 0.00307012 0.0196663 -0.0123778
72 2 8.99549 13.7622 5.10116 0.0133667 0.0216428 0.00141867
73 1 11.5215 8.35263 8.15235 -0.001753 4.70144e-05 -0.00121017
74 2 11.3044 7.62273 8.72952 -0.0227466 -0.0347882 -0.014403
75 2 12.3081 8.04953 7.65515 0.00788859 -0.0198189 -0.0212266
76 1 3.10107 5.42655 9.86332 -0.00216269 -0.00113241 -0.00485246
77 2 11.9944 5.66376 9.81793 0.012381 -0.015561 0.00918732
78 2 3.61582 6.84054 10.904 -0.014259 0.00417523 0.00449344
79 1 3.12435 10.2636 10.6778 0.00351354 0.000837948 -0.00182129
80 2 3.36433 9.38344 10.3638 -0.026012 -0.00927629 -0.0141585
81 2 6.34376 10.6878 8.61397 0.0173251 -0.0268934 -0.00145082
82 1 6.08758 5.81876 9.77743 0.00292134 0.00246652 0.0057756
83 2 5.50635 6.54271 10.0143 -0.00200654 0.0357474 -0.00718216
84 2 6.18847 5.26345 10.6257 0.00106399 0.00778881 0.00914473
85 1 10.0047 13.6704 2.18348 0.00271457 -0.0100767 -0.0016874
86 2 9.55642 12.9653 11.5781 -0.0176195 -0.0115111 0.0223401
87 2 3.12081 4.50462 10.2564 -0.00744111 -0.0118383 0.0373683
88 1 7.97198 11.7606 5.86783 -0.00208107 -0.00433684 0.00502736
89 2 7.12399 11.3129 6.14399 0.0287747 -0.0246777 -0.00204219
90 2 7.6768 12.6533 5.76926 0.00618096 0.00714649 0.0125109
91 1 4.56529 5.9499 6.10169 0.00698547 0.0018369 -0.00177582
92 2 4.52879 7.66134 6.65631 -0.00127618 -0.0145536 -0.0072376
93 2 3.88277 4.77822 7.05386 0.00275612 0.0153182 0.0156726
94 1 4.05596 4.16171 7.82736 -0.00518418 0.00239453 -0.00424115
95 2 4.2158 4.8097 8.56056 0.00693925 0.00597876 -0.000339251
96 2 4.1211 5.55064 5.3006 -0.00461774 0.0222622 0.0263487
ITEM: TIMESTEP
1
ITEM: NUMBER OF ATOMS
96
ITEM: BOX BOUNDS pp pp pp
2.9236100000000000e+00 1.2773600000000000e+01
4.0306300000000004e+00 1.3880599999999999e+01
2.1372399999999998e+00 1.1987200000000000e+01
ITEM: ATOMS id type x y z vx vy vz
1 1 5.6248 4.34054 2.43034 -0.00191867 0.000732745 -0.00186182
2 2 5.37207 13.2447 2.40369 -0.0209375 0.0123841 0.025267
3 2 10.9869 13.5795 11.9573 -0.00962743 0.0251451 -0.000231254
4 1 12.5019 12.9675 11.6486 -2.57255e-05 -0.00185903 -0.000213405
5 2 12.574 12.1726 11.1753 0.00551109 -0.0149915 -0.0145188
6 2 3.23058 12.8207 2.57198 -0.00114541 -0.00414623 0.0157303
7 1 11.6382 7.16659 3.77848 0.00348252 0.00107016 -0.00186888
8 2 10.6796 6.90538 3.83283 0.00764201 0.00736063 0.0016781
9 2 9.62807 8.4371 7.72025 0.0102083 -0.013239 0.0144154
10 1 8.72651 8.6924 7.90639 -0.00410414 0.0027907 -0.00549403
11 2 8.26495 7.86098 8.00808 0.0227193 -0.0199727 0.00127875
12 2 7.44498 9.7582 9.02179 -0.0403495 0.00373755 -0.0108035
13 1 6.24348 9.09495 2.14119 -0.00245787 0.00190792 0.00304024
14 2 6.51952 9.79593 11.3666 -0.0113351 0.0329477 0.00385711
15 2 5.40478 8.73236 11.6938 0.012392 0.00336002 0.00388821
16 1 8.56852 7.46623 11.9622 -0.00162501 0.00135615 0.00362916
17 2 8.58221 7.03168 3.81157 0.0381508 -0.0022402 0.0340968
18 2 7.81935 8.07537 11.953 0.0176721 -0.00126138 -0.00214171
19 1 4.0947 7.5188 11.5122 -0.00297816 0.00224912 -0.000376199
20 2 3.77551 7.28438 2.56203 -0.0049369 0.00706099 0.0141567
21 2 12.1597 10.0769 11.1694 -0.00273291 0.00873598 -0.0273723
22 1 10.3843 9.62862 11.987 -0.000459973 -0.00138383 0.00015862
23 2 10.2156 9.82444 3.05964 0.00159528 0.0127324 -0.00172702
24 2 9.31877 8.04109 11.8005 -0.0197895 -0.0126961 -0.0105327
25 1 4.162 8.52782 6.75197 -0.00203072 -0.00351311 0.000987569
26 2 3.73787 8.74325 5.92459 0.0261543 -0.0215578 -0.02665
27 2 12.4437 5.2127 4.04549 0.0174618 0.0152143 -0.0147159
28 1 8.89145 6.85111 4.71467 0.00300744 0.000986009 8.82374e-05
29 2 9.15657 5.87931 4.74501 0.0145332 0.0200303 0.00263683
30 2 7.49928 6.08388 5.30099 0.00725718 0.020021 -0.0272154
31 1 3.36106 9.71037 4.49239 0.00299518 0.000531386 -0.00771839
32 2 12.6597 10.4971 4.66581 0.0201277 0.0250863 0.00683267
33 2 4.17202 10.0219 4.04706 0.0111785 0.0161907 -0.00240333
34 1 8.28079 5.46722 8.1136 0.00341731 0.00189007 0.00269849
35 2 8.48651 4.4958 8.03288 0.00788901 -0.00942476 0.0133002
36 2 7.67281 5.5305 8.89553 0.00816594 -0.000353619 0.00364323
37 1 8.99033 11.5869 10.5021 0.0044084 0.00135268 -0.00422003
38 2 9.42039 12.1676 9.87818 0.0108251 0.00947192 -0.0137313
39 2 9.96106 10.3597 11.4933 -0.0307304 0.00283929 -0.0111571
40 1 12.087 12.0879 5.29521 4.15752e-06 0.000778263 0.00192185
41 2 3.06929 13.6734 4.54871 0.0038004 0.0104429 -0.0034792
42 2 11.1317 12.3174 5.13276 -0.00120835 -0.00468479 -0.00315918
43 1 3.38411 4.67251 4.08495 -0.00563843 -0.00100849 -0.00334919
44 2 11.6623 8.13233 3.86403 0.0203358 0.0147988 0.0199055
45 2 4.86443 4.69196 2.84984 0.000612601 0.00694385 0.00732964
46 1 9.72203 12.5662 8.02239 0.00263632 0.00884386 0.00456055
47 2 9.17525 12.2596 7.25763 0.029554 0.024714 0.0145058
48 2 10.5392 12.0261 8.04356 -0.029075 -0.00386391 0.00592129
49 1 10.374 6.15207 9.77061 -0.00485076 0.00389846 0.00426322
50 2 9.79231 5.7703 9.14622 0.00971986 -0.00906813 -0.00364878
51 2 9.83687 6.31511 10.5662 0.00581268 -0.0151503 -0.0317484
52 1 9.73478 9.69381 4.76472 -0.00129448 -0.00600998 -0.00198357
53 2 9.4081 8.83952 4.92554 0.0074755 -0.00554955 -0.000249517
54 2 9.04 10.2279 5.18452 -0.0282426 0.00470076 0.0190792
55 1 4.72048 11.3544 2.97658 -0.000206997 0.00088524 -0.0026442
56 2 5.51187 10.6718 2.92992 -0.0133636 0.0291519 -0.0142456
57 2 4.10844 10.8725 2.27546 0.0134151 -0.0141935 0.0176723
58 1 6.84663 10.3925 9.41619 0.00105334 -0.00474764 2.39198e-05
59 2 4.91236 11.9334 7.26858 -0.0131252 0.00582651 -0.0333267
60 2 8.16496 11.3144 10.0635 -0.00510834 0.0251844 -0.0210661
61 1 7.06245 5.29239 5.75102 -0.00128307 -0.00535053 0.00789049
62 2 7.35442 5.34801 6.72543 -0.020926 -0.0036421 -0.0149636
63 2 5.72482 5.82549 5.92438 0.0137237 -0.00693356 0.00223869
64 1 5.54402 11.1616 7.16293 -0.00458202 -0.00580873 0.00417762
65 2 4.98363 10.4347 6.9659 -0.00637666 -0.000159715 0.0131355
66 2 12.0811 11.6349 6.19074 0.00950959 0.0126821 -0.00849629
67 1 12.3701 11.7883 8.20594 -0.000394167 -0.00137166 -0.000548736
68 2 12.736 12.6826 8.10938 0.0122539 0.0255956 0.0109237
69 2 12.6545 11.5722 9.12706 -0.0219451 -0.00886374 -0.00450823
70 1 9.81074 4.30847 4.82492 0.0016509 -0.00199617 0.000543328
71 2 9.99634 13.7474 3.9605 0.00321972 0.0199419 -0.0167375
72 2 9.0014 13.7727 5.10239 0.00967025 0.0199759 0.00353363
73 1 11.5206 8.35263 8.15171 -0.00162018 -0.00012262 -0.00133745
74 2 11.2929 7.60507 8.72258 -0.0228084 -0.0349604 -0.0139916
75 2 12.3119 8.0402 7.64477 0.00650611 -0.0171187 -0.0197903
76 1 3.10005 5.42593 9.86093 -0.00188271 -0.0014204 -0.00466767
77 2 12.0005 5.65579 9.82249 0.0114143 -0.0160473 0.00896822
78 2 3.60973 6.84374 10.9075 -0.0100738 0.00858123 0.00936086
79 1 3.1261 10.264 10.6769 0.00348679 0.000822989 -0.00176621
80 2 3.35142 9.37889 10.3569 -0.0255373 -0.00869586 -0.0133646
81 2 6.35191 10.675 8.61331 0.014564 -0.0236409 -0.00144621
82 1 6.08909 5.81992 9.7804 0.00306729 0.00223097 0.00609163
83 2 5.50534 6.5602 10.0112 -0.00143008 0.0333599 -0.00521829
84 2 6.18828 5.26869 10.6289 -0.00189462 0.0131995 0.00383683
85 1 10.006 13.6655 2.1827 0.00248198 -0.00969562 -0.00143274
86 2 9.54756 12.9587 11.5889 -0.017582 -0.0148234 0.0208923
87 2 3.11688 4.49985 10.275 -0.00808255 -0.006599 0.0367876
88 1 7.97089 11.7584 5.87036 -0.00221165 -0.00443084 0.00508341
89 2 7.13942 11.3009 6.14287 0.0321421 -0.023292 -0.00223764
90 2 7.67976 12.6576 5.77534 0.00551327 0.00959598 0.0119505
91 1 4.56888 5.95085 6.10079 0.00737016 0.00199151 -0.00179003
92 2 4.52866 7.65229 6.65241 0.000693308 -0.0211905 -0.00803359
93 2 3.88438 4.78562 7.06099 0.00351407 0.014322 0.0124622
94 1 4.05339 4.16294 7.82527 -0.0050988 0.00251993 -0.00409895
95 2 4.21919 4.81202 8.56079 0.00654647 0.00303953 0.00131592
96 2 4.11943 5.56192 5.31377 -0.00220289 0.0225578 0.0256942
ITEM: TIMESTEP
2
ITEM: NUMBER OF ATOMS
96
ITEM: BOX BOUNDS pp pp pp
2.9236100000000000e+00 1.2773600000000000e+01
4.0306300000000004e+00 1.3880599999999999e+01
2.1372399999999998e+00 1.1987200000000000e+01
ITEM: ATOMS id type x y z vx vy vz
1 1 5.62389 4.34082 2.42935 -0.00175046 0.000403147 -0.00210092
2 2 5.36224 13.251 2.41628 -0.0182891 0.0123968 0.0249116
3 2 10.982 13.5916 11.9569 -0.00948277 0.0233583 -0.00175621
4 1 12.502 12.9666 11.6485 0.000306456 -0.00160313 -0.000178898
5 2 12.5768 12.1634 11.1672 0.00556435 -0.0207204 -0.0173952
6 2 3.22993 12.8188 2.57993 -0.00176833 -0.00358804 0.0155315
7 1 11.6399 7.16709 3.77754 0.00332285 0.000981412 -0.0018819
8 2 10.6848 6.91005 3.83379 0.0132073 0.011302 0.00215642
9 2 9.63378 8.43057 7.72756 0.0121339 -0.0124045 0.0148818
10 1 8.7244 8.69381 7.90365 -0.00432493 0.00277567 -0.0054811
11 2 8.27651 7.85066 8.00867 0.0233771 -0.0208844 0.00108632
12 2 7.42595 9.75915 9.0166 -0.0347143 -0.000940872 -0.00997749
13 1 6.24234 9.09599 2.14277 -0.00206408 0.00228482 0.0032731
14 2 6.51341 9.81185 11.3681 -0.0132422 0.0301583 0.00250785
15 2 5.41031 8.73371 11.6952 0.00942674 0.00194099 0.00147378
16 1 8.5677 7.46686 11.964 -0.0016255 0.00111258 0.00360211
17 2 8.60102 7.03078 3.82719 0.0364824 -0.000979633 0.0268289
18 2 7.82717 8.07486 11.952 0.0129603 -0.00047851 -0.00196343
19 1 4.09311 7.51981 11.5119 -0.0033664 0.00180915 -0.000518441
20 2 3.77304 7.28819 2.5682 -0.0048085 0.00827983 0.0101194
21 2 12.1583 10.0812 11.1556 -0.00347549 0.00856354 -0.0273912
22 1 10.3841 9.62793 11.987 -0.000395253 -0.00133398 -0.000205755
23 2 10.2162 9.8308 3.06013 0.00103046 0.0126138 0.00348954
24 2 9.30995 8.03532 11.7953 -0.0147166 -0.0100439 -0.0106095
25 1 4.161 8.52612 6.75259 -0.00198302 -0.00334698 0.00140969
26 2 3.75017 8.73321 5.90976 0.0232219 -0.0184273 -0.0321942
27 2 12.4521 5.22076 4.03798 0.0156156 0.0170693 -0.015238
28 1 8.89296 6.85161 4.71478 0.00302057 0.00101139 0.000472049
29 2 9.16443 5.88906 4.74622 0.0171798 0.0182023 0.00232849
30 2 7.50311 6.09434 5.28725 0.00764845 0.0208311 -0.026925
31 1 3.36253 9.71057 4.48852 0.00288821 0.0003055 -0.00773975
32 2 12.6696 10.5102 4.66934 0.019642 0.0267636 0.00728727
33 2 4.17781 10.0306 4.04563 0.0117103 0.0182943 -0.00312538
34 1 8.2825 5.46811 8.11496 0.00342176 0.00164211 0.00273305
35 2 8.49061 4.49179 8.03985 0.00843719 -0.00624503 0.0145146
36 2 7.67657 5.53029 8.89695 0.00685652 -0.000451394 0.00206586
37 1 8.99257 11.5876 10.5001 0.0045453 0.00139241 -0.00392559
38 2 9.42642 12.1729 9.87009 0.0130645 0.0110901 -0.0180547
39 2 9.94556 10.361 11.4873 -0.0308176 0.00183144 -0.0123168
40 1 12.0869 12.0883 5.29622 -0.000266067 0.000663648 0.00208263
41 2 3.07155 13.6798 4.54636 0.00489777 0.0149392 -0.0057426
42 2 11.1325 12.3147 5.13174 0.00404409 -0.00593291 -0.000894264
43 1 3.38125 4.67191 4.08334 -0.00574245 -0.00137147 -0.00311516
44 2 11.6721 8.13906 3.87402 0.0189519 0.011543 0.0199672
45 2 4.86391 4.69658 2.85417 -0.00239991 0.0116627 0.00984433
46 1 9.72331 12.5706 8.02466 0.00247325 0.00893218 0.00458795
47 2 9.19054 12.2718 7.26532 0.0307846 0.0237297 0.015349
48 2 10.5247 12.0243 8.04625 -0.0280201 -0.00369402 0.00501196
49 1 10.3716 6.15411 9.77282 -0.0046548 0.00422769 0.00452286
50 2 9.79602 5.76497 9.1431 0.00518431 -0.0122207 -0.00883139
51 2 9.83974 6.30756 10.5505 0.00484673 -0.0147776 -0.0300201
52 1 9.73413 9.69089 4.76376 -0.00137269 -0.00561557 -0.00184409
53 2 9.41173 8.83484 4.92545 0.00707787 -0.0129029 -0.000137255
54 2 9.02614 10.2309 5.19396 -0.0262079 0.00656394 0.0180646
55 1 4.72043 11.3546 2.9751 6.62768e-06 -0.000123386 -0.00324795
56 2 5.50361 10.6886 2.92322 -0.0186001 0.0371793 -0.0123986
57 2 4.11614 10.8673 2.28584 0.016704 -0.00687017 0.0233202
58 1 6.84714 10.3901 9.41621 0.000961909 -0.00481442 0.000111179
59 2 4.90644 11.9352 7.25194 -0.010248 0.00144259 -0.033148
60 2 8.16134 11.3266 10.0526 -0.00898129 0.0233873 -0.022128
61 1 7.06186 5.28964 5.75494 -0.00106871 -0.00560289 0.0077065
62 2 7.3442 5.34636 6.71835 -0.0195856 -0.00281829 -0.0128299
63 2 5.72814 5.82195 5.92571 -0.000313114 -0.00721577 0.00290141
64 1 5.54171 11.1588 7.16501 -0.00468086 -0.00527839 0.00412208
65 2 4.97956 10.4336 6.97233 -0.00988375 -0.00397903 0.012533
66 2 12.0856 11.6424 6.18536 0.00860737 0.0169178 -0.012386
67 1 12.3699 11.7876 8.20574 -0.000368221 -0.00136725 -0.00028476
68 2 12.7423 12.6962 8.11411 0.0125783 0.0278308 0.0081975
69 2 12.6431 11.5668 9.12424 -0.0237883 -0.0124072 -0.00661216
70 1 9.81163 4.30749 4.82523 0.00193497 -0.00188926 0.000690829
71 2 9.99794 13.7574 3.95108 0.00296383 0.0201517 -0.0205973
72 2 9.00516 13.7822 5.10469 0.00498675 0.0176888 0.00566157
73 1 11.5199 8.35251 8.15101 -0.00143011 -0.000443647 -0.00144473
74 2 11.2816 7.58777 8.71553 -0.0223195 -0.0334151 -0.0147674
75 2 12.3146 8.03241 7.63536 0.00379086 -0.0137092 -0.0174536
76 1 3.09919 5.42513 9.85865 -0.00156614 -0.00181609 -0.00442533
77 2 12.0058 5.64771 9.8269 0.00953358 -0.0159533 0.0085427
78 2 3.60575 6.84912 10.9134 -0.00599611 0.0127565 0.014025
79 1 3.12784 10.2644 10.676 0.00347826 0.000772994 -0.00175639
80 2 3.33879 9.37474 10.3504 -0.0248833 -0.00764822 -0.0125792
81 2 6.35832 10.6642 8.61252 0.0104742 -0.0192118 -0.00193903
82 1 6.09065 5.82099 9.78352 0.003149 0.00209781 0.00639577
83 2 5.50492 6.57607 10.0091 0.000245108 0.0294415 -0.00347124
84 2 6.18658 5.27665 10.6295 -0.00492872 0.0184873 -0.00107106
85 1 10.0072 13.6607 2.18205 0.00216545 -0.00927787 -0.00115386
86 2 9.53884 12.9505 11.599 -0.0170172 -0.0182253 0.0193586
87 2 3.11273 4.49802 10.2932 -0.00833807 -0.000263573 0.0354846
88 1 7.96977 11.7562 5.87291 -0.00223026 -0.00446749 0.00508484
89 2 7.15613 11.2896 6.14175 0.0338004 -0.0219445 -0.00198884
90 2 7.68231 12.6629 5.78121 0.00454327 0.010991 0.0116573
91 1 4.57266 5.95189 6.0999 0.0077546 0.00220516 -0.00171439
92 2 4.52948 7.64015 6.64828 0.00235157 -0.0266031 -0.00815472
93 2 3.88628 4.79254 7.06632 0.00396372 0.0133453 0.00865801
94 1 4.05086 4.16423 7.82326 -0.00500384 0.00265159 -0.00390919
95 2 4.22235 4.81274 8.56188 0.00602367 -0.000343914 0.00303408
96 2 4.1189 5.5732 5.32629 -0.000222799 0.0221983 0.0236786
ITEM: TIMESTEP
3
ITEM: NUMBER OF ATOMS
96
ITEM: BOX BOUNDS pp pp pp
2.9236100000000000e+00 1.2773600000000000e+01
4.0306300000000004e+00 1.3880599999999999e+01
2.1372399999999998e+00 1.1987200000000000e+01
ITEM: ATOMS id type x y z vx vy vz
1 1 5.62305 4.34095 2.42824 -0.00163858 0.000120254 -0.0022989
2 2 5.35379 13.2571 2.4286 -0.0154911 0.0117659 0.0242831
3 2 10.9774 13.6028 11.9556 -0.00834449 0.0210568 -0.00363928
4 1 12.5022 12.9659 11.6484 0.000663564 -0.00146874 -0.000163028
5 2 12.5796 12.1518 11.1579 0.00563841 -0.0244559 -0.0188773
6 2 3.22881 12.8171 2.58751 -0.00301634 -0.00303122 0.0142578
7 1 11.6415 7.16757 3.7766 0.00322514 0.000961502 -0.00188824
8 2 10.6928 6.91668 3.83498 0.0181091 0.0151127 0.00261315
9 2 9.64021 8.4247 7.73513 0.0130431 -0.0105811 0.0154886
10 1 8.72219 8.69518 7.90091 -0.00445862 0.00263601 -0.00548531
11 2 8.28833 7.8401 8.00917 0.023759 -0.0208756 0.000914521
12 2 7.41027 9.75726 9.01181 -0.0271889 -0.00738073 -0.009117
13 1 6.24142 9.09723 2.14446 -0.0016215 0.0027299 0.00345012
14 2 6.50628 9.82609 11.3691 -0.0154245 0.0263065 0.00208193
15 2 5.41421 8.7343 11.6953 0.00600662 0.000359117 -0.00106268
16 1 8.56689 7.46734 11.9658 -0.00163491 0.000800558 0.00356623
17 2 8.61869 7.0307 3.8384 0.0337517 0.000989956 0.0168038
18 2 7.83231 8.0749 11.951 0.00715267 0.000854816 -0.00170834
19 1 4.09133 7.52061 11.5116 -0.0037404 0.00139768 -0.00058894
20 2 3.7707 7.29266 2.57215 -0.00451426 0.0096212 0.00552027
21 2 12.1563 10.0855 11.142 -0.00477988 0.00851982 -0.0269178
22 1 10.384 9.62729 11.9868 -0.000398237 -0.00117876 -0.000584477
23 2 10.2166 9.83706 3.06313 0.000595986 0.0122764 0.00811024
24 2 9.30405 8.03104 11.7899 -0.00837258 -0.00687604 -0.0109762
25 1 4.16002 8.52447 6.75338 -0.00194137 -0.00330056 0.00170286
26 2 3.76109 8.72482 5.8924 0.0207489 -0.0150465 -0.0364841
27 2 12.4593 5.22977 4.03026 0.0131686 0.018902 -0.0155875
28 1 8.89447 6.85212 4.71514 0.00303815 0.00105669 0.00105235
29 2 9.17375 5.89751 4.74734 0.020278 0.0149953 0.00226044
30 2 7.50693 6.10471 5.27406 0.00726912 0.0196614 -0.0250685
31 1 3.36394 9.71068 4.48465 0.00279956 0.000185418 -0.00776791
32 2 12.6794 10.5238 4.6731 0.019422 0.0272643 0.00769117
33 2 4.18373 10.0402 4.04393 0.0116592 0.0196147 -0.00341269
34 1 8.28421 5.46886 8.11634 0.0034379 0.00135041 0.00277974
35 2 8.49494 4.48956 8.04739 0.00884557 -0.00240567 0.0155618
36 2 7.67967 5.53005 8.89759 0.005526 -0.000414146 0.000550668
37 1 8.99487 11.5883 10.4982 0.00465074 0.00147626 -0.00374714
38 2 9.43345 12.1787 9.86013 0.0147756 0.0117743 -0.0211205
39 2 9.93024 10.3615 11.481 -0.030039 -0.000471411 -0.0126183
40 1 12.0867 12.0886 5.29729 -0.000493415 0.000581274 0.00215724
41 2 3.07419 13.6884 4.54297 0.00526542 0.0186813 -0.00752518
42 2 11.1358 12.3114 5.13186 0.00877185 -0.0070693 0.00131876
43 1 3.37837 4.67114 4.08184 -0.00576016 -0.00168091 -0.00292088
44 2 11.6812 8.14388 3.884 0.017457 0.00734611 0.0198799
45 2 4.86203 4.70362 2.85969 -0.00463406 0.0163918 0.0119618
46 1 9.7245 12.5751 8.02697 0.00231398 0.00910752 0.00471516
47 2 9.20604 12.2834 7.27298 0.0303271 0.0222787 0.014381
48 2 10.5112 12.0224 8.04857 -0.0252885 -0.00434869 0.004454
49 1 10.3694 6.1563 9.77513 -0.00437721 0.00451213 0.00460716
50 2 9.7975 5.75807 9.13739 0.000998932 -0.0151985 -0.0137664
51 2 9.84172 6.30033 10.5362 0.00226458 -0.0138787 -0.0258177
52 1 9.7334 9.68819 4.76288 -0.00158069 -0.00515967 -0.00163306
53 2 9.41518 8.82662 4.92541 0.00684268 -0.0194544 -8.32011e-05
54 2 9.0138 10.2344 5.20258 -0.0222838 0.00684572 0.0158803
55 1 4.72048 11.3543 2.97333 0.000162375 -0.000977017 -0.00376613
56 2 5.49327 10.709 2.91752 -0.0213983 0.0436117 -0.0103306
57 2 4.12514 10.8657 2.29878 0.0185299 -0.000100029 0.0276874
58 1 6.8476 10.3876 9.4163 0.000832761 -0.00482113 0.000244242
59 2 4.90211 11.9348 7.23543 -0.00692319 -0.0032503 -0.0327952
60 2 8.15598 11.3378 10.0414 -0.0119305 0.0216476 -0.0224933
61 1 7.06138 5.28679 5.75873 -0.000805531 -0.00574772 0.00735743
62 2 7.33484 5.3452 6.7126 -0.0176174 -0.00167759 -0.00981411
63 2 5.72451 5.81827 5.92728 -0.0137082 -0.00752551 0.00325045
64 1 5.53934 11.1563 7.16705 -0.00482011 -0.00472689 0.00403825
65 2 4.97375 10.4307 6.97844 -0.0132118 -0.00780564 0.0119456
66 2 12.0897 11.6518 6.17836 0.00757474 0.0204387 -0.0148064
67 1 12.3697 11.787 8.20566 -0.000294023 -0.00121905 -7.10346e-05
68 2 12.7485 12.7104 8.11758 0.0121803 0.0278411 0.00590896
69 2 12.6307 11.5598 9.12045 -0.025313 -0.0158395 -0.00835235
70 1 9.81268 4.30658 4.82561 0.00228157 -0.00176392 0.000794941
71 2 9.9993 13.7676 3.9399 0.00221034 0.0204107 -0.0237019
72 2 9.00639 13.7904 5.10805 -0.000223264 0.0150131 0.00761544
73 1 11.5192 8.35219 8.15027 -0.0012051 -0.000898216 -0.00153025
74 2 11.2706 7.57166 8.70781 -0.0212931 -0.0302957 -0.0165462
75 2 12.3157 8.02649 7.62732 9.97625e-05 -0.0097315 -0.0144261
76 1 3.09849 5.42411 9.85651 -0.00122255 -0.00229746 -0.00413552
77 2 12.01 5.63983 9.83104 0.00679628 -0.0152559 0.00789135
78 2 3.60374 6.85649 10.9215 -0.00231425 0.0163509 0.018106
79 1 3.12958 10.2648 10.6752 0.00347999 0.000689276 -0.00179297
80 2 3.32654 9.37124 10.3443 -0.024033 -0.00616602 -0.0118115
81 2 6.36238 10.6558 8.61137 0.00528563 -0.0137606 -0.00280727
82 1 6.09223 5.82202 9.78679 0.00317215 0.00207246 0.00665854
83 2 5.50559 6.58964 10.0078 0.00277936 0.0243088 -0.00194129
84 2 6.18335 5.28718 10.6279 -0.00789665 0.0232649 -0.00513526
85 1 10.0082 13.6562 2.18154 0.00176464 -0.00884431 -0.000859706
86 2 9.53054 12.9405 11.6083 -0.0158752 -0.0214911 0.017868
87 2 3.10855 4.49958 10.3105 -0.00815837 0.00672621 0.0335992
88 1 7.96866 11.7539 5.87545 -0.0021322 -0.0044331 0.00502845
89 2 7.17322 11.279 6.14088 0.0336483 -0.0207658 -0.001254
90 2 7.68431 12.6686 5.787 0.00332193 0.0112321 0.0116294
91 1 4.57663 5.95306 6.09907 0.00812841 0.00248182 -0.00154705
92 2 4.53102 7.62569 6.64425 0.00342509 -0.0302363 -0.00761263
93 2 3.88834 4.79897 7.06965 0.0041343 0.012298 0.00460803
94 1 4.04838 4.16559 7.82136 -0.00490415 0.00277998 -0.00368439
95 2 4.22521 4.81167 8.56383 0.00534042 -0.0040263 0.00473528
96 2 4.11921 5.58412 5.33745 0.00112272 0.0211734 0.0202177
ITEM: TIMESTEP
4
ITEM: NUMBER OF ATOMS
96
ITEM: BOX BOUNDS pp pp pp
2.9236100000000000e+00 1.2773600000000000e+01
4.0306300000000004e+00 1.3880599999999999e+01
2.1372399999999998e+00 1.1987200000000000e+01
ITEM: ATOMS id type x y z vx vy vz
1 1 5.62225 4.34094 2.42705 -0.00160215 -0.000103023 -0.00244235
2 2 5.34675 13.2627 2.44056 -0.0126487 0.0106352 0.0234624
3 2 10.9736 13.6127 11.9532 -0.00633758 0.018318 -0.00582549
4 1 12.5026 12.9652 11.6483 0.00104101 -0.00146651 -0.000180794
5 2 12.5824 12.139 11.1483 0.00570227 -0.0260035 -0.0188392
6 2 3.22692 12.8157 2.59419 -0.00480978 -0.00248193 0.0120198
7 1 11.6431 7.16805 3.77565 0.00321492 0.00100002 -0.00189055
8 2 10.703 6.92516 3.8364 0.0218397 0.0185822 0.00307628
9 2 9.64682 8.41999 7.74304 0.0128901 -0.00776979 0.0162008
10 1 8.71994 8.69645 7.89816 -0.00450352 0.00237352 -0.00550089
11 2 8.30027 7.82978 8.00958 0.0238484 -0.0199466 0.000738084
12 2 7.39876 9.75177 9.00748 -0.0184215 -0.0149888 -0.00813311
13 1 6.24072 9.09872 2.14622 -0.0011541 0.00321889 0.00356875
14 2 6.49799 9.83815 11.3701 -0.0177675 0.0215713 0.00244686
15 2 5.41632 8.73407 11.6941 0.00247823 -0.00126757 -0.00356346
16 1 8.56607 7.46766 11.9676 -0.00164665 0.000454843 0.00352333
17 2 8.63477 7.03177 3.84399 0.0303407 0.00347159 0.00477421
18 2 7.83432 8.07571 11.9502 0.000700559 0.00251574 -0.00139298
19 1 4.08937 7.52121 11.5113 -0.00407466 0.0010438 -0.000588085
20 2 3.76853 7.29781 2.57372 -0.00415983 0.0110157 0.000765065
21 2 12.1535 10.0898 11.1287 -0.00653399 0.00861924 -0.0260258
22 1 10.3837 9.62675 11.9864 -0.000470314 -0.000929604 -0.000951803
23 2 10.2168 9.84308 3.06824 0.000307917 0.0116763 0.011778
24 2 9.30158 8.02845 11.7843 -0.00134514 -0.00345819 -0.0115082
25 1 4.15906 8.52282 6.75429 -0.00190773 -0.00338061 0.00183546
26 2 3.77092 8.71817 5.87328 0.0189529 -0.0115735 -0.0390269
27 2 12.4652 5.23967 4.0224 0.0103354 0.0205963 -0.0157577
28 1 8.896 6.85266 4.71583 0.00304194 0.00111061 0.00177886
29 2 9.18471 5.90406 4.74848 0.0237236 0.0107686 0.00236866
30 2 7.51038 6.114 5.26219 0.00617808 0.0165562 -0.0217085
31 1 3.36532 9.71076 4.48075 0.00273272 0.000176424 -0.00779791
32 2 12.689 10.5375 4.67703 0.019453 0.0265059 0.00802748
33 2 4.18947 10.0502 4.04221 0.010994 0.0200707 -0.00323789
34 1 8.28594 5.46946 8.11774 0.00347027 0.00103481 0.00283778
35 2 8.49945 4.48938 8.05541 0.00917081 0.00176669 0.0164123
36 2 7.68209 5.52987 8.8975 0.00413039 -0.000241178 -0.000829224
37 1 8.99722 11.589 10.4963 0.00471845 0.00161038 -0.00370022
38 2 9.44119 12.1846 9.84897 0.0157999 0.0113646 -0.0228062
39 2 9.91552 10.3606 11.4747 -0.0284567 -0.00389793 -0.0120861
40 1 12.0864 12.0889 5.29838 -0.000656479 0.000534436 0.00213104
41 2 3.07682 13.6985 4.53884 0.00481634 0.0213703 -0.00865301
42 2 11.1413 12.3076 5.13306 0.0125689 -0.00798508 0.00335904
43 1 3.37549 4.67023 4.08042 -0.00569683 -0.00190986 -0.00278027
44 2 11.6896 8.1464 3.8939 0.0159322 0.0025812 0.0196555
45 2 4.85928 4.71298 2.86613 -0.00573259 0.0207648 0.0134442
46 1 9.72562 12.5798 8.02938 0.00216927 0.00935926 0.0049413
47 2 9.22087 12.2941 7.2797 0.0282266 0.0204184 0.0116136
48 2 10.4994 12.02 8.05071 -0.0210981 -0.00572867 0.00426082
49 1 10.3673 6.15862 9.77743 -0.0040527 0.00473754 0.00450341
50 2 9.79702 5.74977 9.12933 -0.00245097 -0.0176796 -0.0179543
51 2 9.84201 6.29368 10.5246 -0.00178046 -0.0125618 -0.0194668
52 1 9.73254 9.68573 4.76212 -0.00190257 -0.00468831 -0.00136159
53 2 9.41857 8.81539 4.92537 0.00687506 -0.0246934 -0.000148084
54 2 9.00385 10.2377 5.20984 -0.0168159 0.00574351 0.0127158
55 1 4.7206 11.3536 2.97133 0.000247241 -0.00161526 -0.00416317
56 2 5.48221 10.7322 2.91289 -0.0212901 0.0480156 -0.00820756
57 2 4.13466 10.8672 2.31353 0.0186683 0.0056768 0.0304063
58 1 6.84798 10.3852 9.41646 0.000685796 -0.00478588 0.000397925
59 2 4.89952 11.932 7.21915 -0.00339912 -0.00795268 -0.0322303
60 2 8.14941 11.3482 10.0301 -0.0137342 0.02 -0.0220571
61 1 7.06105 5.28389 5.7623 -0.000507742 -0.00577648 0.00686697
62 2 7.32659 5.34468 6.70853 -0.0152211 -0.000255038 -0.00625255
63 2 5.71444 5.81442 5.92896 -0.0257565 -0.00796181 0.0032952
64 1 5.53689 11.1541 7.16905 -0.004999 -0.00419489 0.00392325
65 2 4.96635 10.4258 6.98427 -0.0161086 -0.0113363 0.0114636
66 2 12.0932 11.6628 6.17056 0.00646814 0.0230658 -0.0154281
67 1 12.3696 11.7864 8.20567 -0.000178783 -0.000934733 8.41085e-05
68 2 12.7544 12.724 8.12002 0.0111318 0.025687 0.00412623
69 2 12.6177 11.551 9.11589 -0.0264564 -0.0190709 -0.00963929
70 1 9.81391 4.30573 4.82603 0.00266039 -0.00163748 0.000853111
71 2 10.0002 13.7779 3.92738 0.000899581 0.0207983 -0.0258614
72 2 9.00494 13.7972 5.11231 -0.00544415 0.0121994 0.00919901
73 1 11.5187 8.35161 8.14948 -0.000967534 -0.00145782 -0.00159378
74 2 11.2603 7.55747 8.69898 -0.019793 -0.0258782 -0.0190658
75 2 12.3147 8.02268 7.62093 -0.00415637 -0.00536557 -0.0109656
76 1 3.09796 5.42283 9.85452 -0.000865116 -0.00283906 -0.00381047
77 2 12.0126 5.63246 9.83479 0.00333103 -0.0139649 0.00699885
78 2 3.60343 6.86547 10.9315 0.000694277 0.0190349 0.021252
79 1 3.13132 10.2651 10.6742 0.00348171 0.000575087 -0.00187354
80 2 3.31476 9.36858 10.3386 -0.0229708 -0.00432007 -0.0110754